Siesta Version:                                        trunk-421
Architecture  : x86_64-unknown-linux-gnu--unknown
Compiler flags: mpif90 -g -O2
PARALLEL version

* Running on   32 nodes in parallel
>> Start of run:   7-OCT-2020  16:09:23

                           ***********************       
                           *  WELCOME TO SIESTA  *       
                           ***********************       

reinit: Reading from standard input
************************** Dump of input data file ****************************
######################
# dir_neb1/neb1.fdf
######################
######################
# neb generated input
######################
SystemName  lbl_neb1
SystemLabel lbl_neb1
DM.Tolerance  1.00E-04
MaxSCFIterations      500
NetCharge        0
NumberOfAtoms       59
AtomicCoordinatesFormat    Ang
%block AtomicCoordinatesAndAtomicSpecies
      2.023149      5.187094     -3.789244 1
      2.724863      5.459198     -2.567963 1
      1.925535      5.724518     -1.439354 1
      0.573436      5.336944     -1.347394 1
     -0.112984      5.027070     -2.565022 1
      0.606608      5.028840     -3.791685 1
      4.343732      5.944912     -0.112037 1
      4.898998      5.515177     -1.343767 1
      4.162200      5.435409     -2.565438 1
      4.923822      5.622186      1.149180 1
      6.308921      5.227763      1.140817 1
      6.998961      5.078422     -0.097664 1
      6.291538      5.162577     -1.330027 1
      4.867094      5.220630     -3.779487 1
      6.284003      5.043394     -3.785227 1
      6.989878      4.969815     -2.556081 1
      8.406775      4.800961     -2.556595 1
      9.120249      4.802599     -1.327121 1
      8.407748      4.875180     -0.098266 1
      9.121992      4.819861      1.130201 1
      8.410795      4.830760      2.362765 1
      6.998947      5.027318      2.368577 1
      6.288025      5.092742      3.596779 1
      4.876566      5.291797      3.598457 1
      4.175845      5.564778      2.385792 1
      2.726045      5.514544      2.378790 1
      1.941216      5.647493      1.210795 1
      9.121737      4.739842      3.591965 1
      8.405655      4.769812      4.823066 1
      6.988280      4.937725      4.825647 1
      2.020395      5.207950      3.597643 1
      2.738572      5.190715      4.825373 1
      4.159657      5.231370      4.826522 1
      0.580432      5.295617      1.131131 1
     -0.106389      5.009601      2.356302 1
      0.608698      5.019609      3.586391 1
     -0.132532      5.221229     -0.107017 1
     -1.522086      4.832216      2.355262 1
     -0.099878      4.884874      4.818154 1
     -1.518226      4.744177      4.817526 1
     10.544170      4.839650      1.128936 1
     10.548892      4.726071      3.589187 1
     10.541434      4.835673     -1.329774 1
      9.120125      4.724693     -3.787094 1
     10.548073      4.719921     -3.789123 1
     -1.523787      4.951191     -0.104329 1
     -1.524564      4.830047     -2.560418 1
      2.634580      7.014411     -0.083250 2
      5.151027      8.011803      0.530432 2
      3.008344      7.975790      2.517296 2
      3.176531      9.956791      0.413707 2
      4.253616      9.038572      1.760043 3
      2.155115      9.255950      1.661360 3
      2.146499     11.351455     -0.323455 3
      1.620813     10.987806      0.232295 3
      5.014453      9.446037     -0.687493 3
      4.543679     10.415411     -0.741756 3
      2.924926      8.004959      4.551304 3
      2.981451      8.789885      4.331961 3
%endblock AtomicCoordinatesAndAtomicSpecies
######################
# user input template
######################
NumberOfSpecies         3
%block ChemicalSpeciesLabel
 1  6    C_pbe
 2 46   Pd_pbe
 3  1    H_pbe
%endblock ChemicalSpeciesLabel
SpinPolarized  .true.
%block kgrid_Monkhorst_Pack
 4 0 0 0.5
 0 1 0 0.5
 0 0 4 0.5
%endblock kgrid_Monkhorst_Pack
XC.functional    GGA
XC.authors       PBE
PAO.BasisType   split
PAO.BasisSize   DZP
PAO.EnergyShift 0.005 Ry
AtomicCoorFormatOut     ScaledCartesian
LatticeConstant  1.0 Ang
%block LatticeParameters
12.78 30.50 9.84  90  90  90
%endblock LatticeParameters
WriteCoorStep      .true.
WriteForces        .true.
MD.UseSaveXV       .true.
UseSaveData        .true.
WriteMDHistory     .true.
WriteMDXmol        .true.
DM.UseSaveDM       .true.
DM.MixingWeight         0.05
DM.NumberPulay          6
WarningMinimumAtomicDistance 0.5 bohr
Solution.Method       diagon
MeshCutoff             450 Ry
DM.NumberBroyden       4
MD.TypeOfRun            CG
MD.numCGsteps           0
************************** End of input data file *****************************

reinit: -----------------------------------------------------------------------
reinit: System Name: lbl_neb1
reinit: -----------------------------------------------------------------------
reinit: System Label: lbl_neb1                                                    
reinit: -----------------------------------------------------------------------

initatom: Reading input for the pseudopotentials and atomic orbitals ----------
 Species number:            1  Label: C_pbe Atomic number:           6
 Species number:            2  Label: Pd_pbe Atomic number:          46
 Species number:            3  Label: H_pbe Atomic number:           1
Ground state valence configuration:   2s02  2p02
Reading pseudopotential information in formatted form from C_pbe.psf

Valence configuration for pseudopotential generation:
2s( 2.00) rc: 1.54
2p( 2.00) rc: 1.54
3d( 0.00) rc: 1.54
4f( 0.00) rc: 1.54
Ground state valence configuration:   5s01  4d09
Reading pseudopotential information in formatted form from Pd_pbe.psf

Valence configuration for pseudopotential generation:
5s( 1.00) rc: 2.58
5p( 0.00) rc: 2.71
4d( 9.00) rc: 2.42
4f( 0.00) rc: 2.42
Ground state valence configuration:   1s01
Reading pseudopotential information in formatted form from H_pbe.psf

Valence configuration for pseudopotential generation:
1s( 1.00) rc: 1.31
2p( 0.00) rc: 1.31
3d( 0.00) rc: 0.37
4f( 0.00) rc: 1.31
For C_pbe, standard SIESTA heuristics set lmxkb to 3
 (one more than the basis l, including polarization orbitals).
Use PS.lmax or PS.KBprojectors blocks to override.
For Pd_pbe, standard SIESTA heuristics set lmxkb to 3
 (one more than the basis l, including polarization orbitals).
Use PS.lmax or PS.KBprojectors blocks to override.
For H_pbe, standard SIESTA heuristics set lmxkb to 2
 (one more than the basis l, including polarization orbitals).
Use PS.lmax or PS.KBprojectors blocks to override.

<basis_specs>
===============================================================================
C_pbe                Z=   6    Mass=  12.010        Charge= 0.17977+309
Lmxo=1 Lmxkb= 3    BasisType=split      Semic=F
L=0  Nsemic=0  Cnfigmx=2
          n=1  nzeta=2  polorb=0
            splnorm:   0.15000    
               vcte:    0.0000    
               rinn:    0.0000    
                rcs:    0.0000      0.0000    
            lambdas:    1.0000      1.0000    
L=1  Nsemic=0  Cnfigmx=2
          n=1  nzeta=2  polorb=1
            splnorm:   0.15000    
               vcte:    0.0000    
               rinn:    0.0000    
                rcs:    0.0000      0.0000    
            lambdas:    1.0000      1.0000    
-------------------------------------------------------------------------------
L=0  Nkbl=1  erefs: 0.17977+309
L=1  Nkbl=1  erefs: 0.17977+309
L=2  Nkbl=1  erefs: 0.17977+309
L=3  Nkbl=1  erefs: 0.17977+309
===============================================================================
</basis_specs>

atom: Called for C_pbe                 (Z =   6)

read_vps: Pseudopotential generation method:
read_vps: ATM3      Troullier-Martins                       
Total valence charge:    4.00000

read_vps: Pseudopotential includes a core correction:
read_vps: Pseudo-core for xc-correction

xc_check: Exchange-correlation functional:
xc_check: GGA Perdew, Burke & Ernzerhof 1996
V l=0 = -2*Zval/r beyond r=  1.5227
V l=1 = -2*Zval/r beyond r=  1.5227
V l=2 = -2*Zval/r beyond r=  1.5227
V l=3 = -2*Zval/r beyond r=  1.5038
All V_l potentials equal beyond r=  1.5227
This should be close to max(r_c) in ps generation
All pots = -2*Zval/r beyond r=  1.5227

VLOCAL1: 99.0% of the norm of Vloc inside     18.722 Ry
VLOCAL1: 99.9% of the norm of Vloc inside     42.668 Ry
atom: Maximum radius for 4*pi*r*r*local-pseudopot. charge    1.83678
atom: Maximum radius for r*vlocal+2*Zval:    1.58088
GHOST: No ghost state for L =  0
GHOST: No ghost state for L =  1
GHOST: No ghost state for L =  2
GHOST: No ghost state for L =  3

KBgen: Kleinman-Bylander projectors: 
   l= 0   rc=  1.704034   el= -1.009801   Ekb=  5.335044   kbcos=  0.316824
   l= 1   rc=  1.704034   el= -0.388707   Ekb= -3.785862   kbcos= -0.366464
   l= 2   rc=  1.791422   el=  0.001971   Ekb= -0.970471   kbcos= -0.009212
   l= 3   rc=  1.859892   el=  0.003065   Ekb= -0.399525   kbcos= -0.001223

KBgen: Total number of  Kleinman-Bylander projectors:   16
atom: -------------------------------------------------------------------------

atom: SANKEY-TYPE ORBITALS:
atom: Selected multiple-zeta basis: split     

SPLIT: Orbitals with angular momentum L= 0

SPLIT: Basis orbitals for state 2s

SPLIT: PAO cut-off radius determined from an
SPLIT: energy shift=  0.005000 Ry

   izeta = 1
                 lambda =    1.000000
                     rc =    4.870301
                 energy =   -1.004978
                kinetic =    0.843912
    potential(screened) =   -1.848890
       potential(ionic) =   -5.399930

   izeta = 2
                 rmatch =    3.475094
              splitnorm =    0.150000
                 energy =   -0.867524
                kinetic =    1.299872
    potential(screened) =   -2.167396
       potential(ionic) =   -5.961732

SPLIT: Orbitals with angular momentum L= 1

SPLIT: Basis orbitals for state 2p

SPLIT: PAO cut-off radius determined from an
SPLIT: energy shift=  0.005000 Ry

   izeta = 1
                 lambda =    1.000000
                     rc =    6.099293
                 energy =   -0.384291
                kinetic =    2.361393
    potential(screened) =   -2.745684
       potential(ionic) =   -6.151019

   izeta = 2
                 rmatch =    3.699245
              splitnorm =    0.150000
                 energy =   -0.263576
                kinetic =    3.460758
    potential(screened) =   -3.724335
       potential(ionic) =   -7.494953

POLgen: Perturbative polarization orbital with L=  2

POLgen: Polarization orbital for state 2p

   izeta = 1
                     rc =    6.099293
                 energy =    1.042694
                kinetic =    2.181445
    potential(screened) =   -1.138752
       potential(ionic) =   -3.900921
atom: Total number of Sankey-type orbitals: 13

atm_pop: Valence configuration (for local Pseudopot. screening):
 2s( 2.00)                                                            
 2p( 2.00)                                                            
Vna: chval, zval:    4.00000   4.00000

Vna:  Cut-off radius for the neutral-atom potential:   6.099293
comcore: Pseudo-core radius Rcore=  1.791422

atom: _________________________________________________________________________

<basis_specs>
===============================================================================
Pd_pbe               Z=  46    Mass=  106.42        Charge= 0.17977+309
Lmxo=2 Lmxkb= 3    BasisType=split      Semic=F
L=0  Nsemic=0  Cnfigmx=5
          n=1  nzeta=2  polorb=1
            splnorm:   0.15000    
               vcte:    0.0000    
               rinn:    0.0000    
                rcs:    0.0000      0.0000    
            lambdas:    1.0000      1.0000    
L=1  Nsemic=0  Cnfigmx=5
L=2  Nsemic=0  Cnfigmx=4
          n=1  nzeta=2  polorb=0
            splnorm:   0.15000    
               vcte:    0.0000    
               rinn:    0.0000    
                rcs:    0.0000      0.0000    
            lambdas:    1.0000      1.0000    
-------------------------------------------------------------------------------
L=0  Nkbl=1  erefs: 0.17977+309
L=1  Nkbl=1  erefs: 0.17977+309
L=2  Nkbl=1  erefs: 0.17977+309
L=3  Nkbl=1  erefs: 0.17977+309
===============================================================================
</basis_specs>

atom: Called for Pd_pbe                (Z =  46)

read_vps: Pseudopotential generation method:
read_vps: ATM3      Troullier-Martins                       
Total valence charge:   10.00000

read_vps: Pseudopotential includes a core correction:
read_vps: Pseudo-core for xc-correction

xc_check: Exchange-correlation functional:
xc_check: GGA Perdew, Burke & Ernzerhof 1996
V l=0 = -2*Zval/r beyond r=  2.6087
V l=1 = -2*Zval/r beyond r=  2.8830
V l=2 = -2*Zval/r beyond r=  2.5763
V l=3 = -2*Zval/r beyond r=  2.5443
All V_l potentials equal beyond r=  2.6747
This should be close to max(r_c) in ps generation
All pots = -2*Zval/r beyond r=  2.8830

VLOCAL1: 99.0% of the norm of Vloc inside      6.068 Ry
VLOCAL1: 99.9% of the norm of Vloc inside     13.828 Ry
atom: Maximum radius for 4*pi*r*r*local-pseudopot. charge    3.22632
atom: Maximum radius for r*vlocal+2*Zval:    2.84721
GHOST: No ghost state for L =  0
GHOST: No ghost state for L =  1
GHOST: No ghost state for L =  2
GHOST: No ghost state for L =  3

KBgen: Kleinman-Bylander projectors: 
   l= 0   rc=  3.146660   el= -0.291428   Ekb=  3.329819   kbcos=  0.260020
   l= 1   rc=  3.266902   el= -0.059714   Ekb=  1.778184   kbcos=  0.219026
   l= 2   rc=  2.847210   el= -0.522064   Ekb= -7.137130   kbcos= -0.699215
   l= 3   rc=  3.226319   el=  0.003147   Ekb= -2.851956   kbcos= -0.013252

KBgen: Total number of  Kleinman-Bylander projectors:   16
atom: -------------------------------------------------------------------------

atom: SANKEY-TYPE ORBITALS:
atom: Selected multiple-zeta basis: split     

SPLIT: Orbitals with angular momentum L= 0

SPLIT: Basis orbitals for state 5s

SPLIT: PAO cut-off radius determined from an
SPLIT: energy shift=  0.005000 Ry

   izeta = 1
                 lambda =    1.000000
                     rc =    8.342410
                 energy =   -0.286435
                kinetic =    0.251986
    potential(screened) =   -0.538421
       potential(ionic) =   -6.653875

   izeta = 2
                 rmatch =    7.003086
              splitnorm =    0.150000
                 energy =   -0.240552
                kinetic =    0.411156
    potential(screened) =   -0.651708
       potential(ionic) =   -7.278439

SPLIT: Orbitals with angular momentum L= 2

SPLIT: Basis orbitals for state 4d

SPLIT: PAO cut-off radius determined from an
SPLIT: energy shift=  0.005000 Ry

   izeta = 1
                 lambda =    1.000000
                     rc =    4.934975
                 energy =   -0.517069
                kinetic =    5.647773
    potential(screened) =   -6.164841
       potential(ionic) =  -16.313517

   izeta = 2
                 rmatch =    2.708348
              splitnorm =    0.150000
                 energy =   -0.211385
                kinetic =    7.842431
    potential(screened) =   -8.053816
       potential(ionic) =  -19.050837

POLgen: Perturbative polarization orbital with L=  1

POLgen: Polarization orbital for state 5s

   izeta = 1
                     rc =    8.342410
                 energy =   -0.041208
                kinetic =    0.455222
    potential(screened) =   -0.496430
       potential(ionic) =   -6.125803
atom: Total number of Sankey-type orbitals: 15

atm_pop: Valence configuration (for local Pseudopot. screening):
 5s( 1.00)                                                            
 5p( 0.00)                                                            
 4d( 9.00)                                                            
Vna: chval, zval:   10.00000  10.00000

Vna:  Cut-off radius for the neutral-atom potential:   8.342410
comcore: Pseudo-core radius Rcore=  4.091229

atom: _________________________________________________________________________

<basis_specs>
===============================================================================
H_pbe                Z=   1    Mass=  1.0100        Charge= 0.17977+309
Lmxo=0 Lmxkb= 2    BasisType=split      Semic=F
L=0  Nsemic=0  Cnfigmx=1
          n=1  nzeta=2  polorb=1
            splnorm:   0.15000    
               vcte:    0.0000    
               rinn:    0.0000    
                rcs:    0.0000      0.0000    
            lambdas:    1.0000      1.0000    
-------------------------------------------------------------------------------
L=0  Nkbl=1  erefs: 0.17977+309
L=1  Nkbl=1  erefs: 0.17977+309
L=2  Nkbl=1  erefs: 0.17977+309
===============================================================================
</basis_specs>

atom: Called for H_pbe                 (Z =   1)

read_vps: Pseudopotential generation method:
read_vps: ATM3      Troullier-Martins                       
Total valence charge:    1.00000

xc_check: Exchange-correlation functional:
xc_check: GGA Perdew, Burke & Ernzerhof 1996
V l=0 = -2*Zval/r beyond r=  1.2977
V l=1 = -2*Zval/r beyond r=  1.2815
V l=2 = -2*Zval/r beyond r=  1.2656
All V_l potentials equal beyond r=  1.2977
This should be close to max(r_c) in ps generation
All pots = -2*Zval/r beyond r=  1.2977

VLOCAL1: 99.0% of the norm of Vloc inside     25.776 Ry
VLOCAL1: 99.9% of the norm of Vloc inside     58.745 Ry
atom: Maximum radius for 4*pi*r*r*local-pseudopot. charge    1.52711
atom: Maximum radius for r*vlocal+2*Zval:    1.28155
GHOST: No ghost state for L =  0
GHOST: No ghost state for L =  1
GHOST: No ghost state for L =  2

KBgen: Kleinman-Bylander projectors: 
   l= 0   rc=  1.434438   el= -0.477200   Ekb= -1.957043   kbcos= -0.361614
   l= 1   rc=  1.508111   el=  0.001076   Ekb= -0.424224   kbcos= -0.025441
   l= 2   rc=  1.527112   el=  0.002010   Ekb= -0.378578   kbcos= -0.002010

KBgen: Total number of  Kleinman-Bylander projectors:    9
atom: -------------------------------------------------------------------------

atom: SANKEY-TYPE ORBITALS:
atom: Selected multiple-zeta basis: split     

SPLIT: Orbitals with angular momentum L= 0

SPLIT: Basis orbitals for state 1s

SPLIT: PAO cut-off radius determined from an
SPLIT: energy shift=  0.005000 Ry

   izeta = 1
                 lambda =    1.000000
                     rc =    5.752124
                 energy =   -0.472099
                kinetic =    0.901451
    potential(screened) =   -1.373550
       potential(ionic) =   -1.895131

   izeta = 2
                 rmatch =    4.002347
              splitnorm =    0.150000
                 energy =   -0.371667
                kinetic =    1.468035
    potential(screened) =   -1.839702
       potential(ionic) =   -2.387541

POLgen: Perturbative polarization orbital with L=  1

POLgen: Polarization orbital for state 1s

   izeta = 1
                     rc =    5.752124
                 energy =    0.595504
                kinetic =    1.226627
    potential(screened) =   -0.631124
       potential(ionic) =   -1.104953
atom: Total number of Sankey-type orbitals:  5

atm_pop: Valence configuration (for local Pseudopot. screening):
 1s( 1.00)                                                            
Vna: chval, zval:    1.00000   1.00000

Vna:  Cut-off radius for the neutral-atom potential:   5.752124

atom: _________________________________________________________________________

prinput: Basis input ----------------------------------------------------------

PAO.BasisType split     

%block ChemicalSpeciesLabel
    1    6 C_pbe                   # Species index, atomic number, species label
    2   46 Pd_pbe                  # Species index, atomic number, species label
    3    1 H_pbe                   # Species index, atomic number, species label
%endblock ChemicalSpeciesLabel

%block PAO.Basis                 # Define Basis set
C_pbe                 2                    # Species label, number of l-shells
 n=2   0   2                         # n, l, Nzeta 
   4.870      3.475   
   1.000      1.000   
 n=2   1   2 P   1                   # n, l, Nzeta, Polarization, NzetaPol
   6.099      3.699   
   1.000      1.000   
Pd_pbe                2                    # Species label, number of l-shells
 n=5   0   2 P   1                   # n, l, Nzeta, Polarization, NzetaPol
   8.342      7.003   
   1.000      1.000   
 n=4   2   2                         # n, l, Nzeta 
   4.935      2.708   
   1.000      1.000   
H_pbe                 1                    # Species label, number of l-shells
 n=1   0   2 P   1                   # n, l, Nzeta, Polarization, NzetaPol
   5.752      4.002   
   1.000      1.000   
%endblock PAO.Basis

prinput: ----------------------------------------------------------------------

coor:   Atomic-coordinates input format  =     Cartesian coordinates
coor:                                          (in Angstroms)

siesta: WARNING: XV file not found

siesta: Atomic coordinates (Bohr) and species
siesta:      3.82320   9.80219  -7.16064  1        1
siesta:      5.14925  10.31639  -4.85275  1        2
siesta:      3.63874  10.81778  -2.71999  1        3
siesta:      1.08364  10.08537  -2.54621  1        4
siesta:     -0.21351   9.49979  -4.84719  1        5
siesta:      1.14632   9.50313  -7.16525  1        6
siesta:      8.20847  11.23426  -0.21172  1        7
siesta:      9.25777  10.42218  -2.53935  1        8
siesta:      7.86542  10.27144  -4.84798  1        9
siesta:      9.30468  10.62440   2.17164  1       10
siesta:     11.92214   9.87904   2.15583  1       11
siesta:     13.22612   9.59683  -0.18456  1       12
siesta:     11.88929   9.75586  -2.51339  1       13
siesta:      9.19748   9.86556  -7.14220  1       14
siesta:     11.87505   9.53064  -7.15305  1       15
siesta:     13.20896   9.39159  -4.83029  1       16
siesta:     15.88651   9.07251  -4.83127  1       17
siesta:     17.23478   9.07560  -2.50790  1       18
siesta:     15.88835   9.21276  -0.18570  1       19
siesta:     17.23807   9.10822   2.13577  1       20
siesta:     15.89411   9.12882   4.46498  1       21
siesta:     13.22610   9.50026   4.47596  1       22
siesta:     11.88265   9.62389   6.79693  1       23
siesta:      9.21538  10.00005   6.80010  1       24
siesta:      7.89121  10.51591   4.50850  1       25
siesta:      5.15148  10.42098   4.49526  1       26
siesta:      3.66837  10.67222   2.28807  1       27
siesta:     17.23759   8.95701   6.78783  1       28
siesta:     15.88439   9.01364   9.11428  1       29
siesta:     13.20594   9.33095   9.11915  1       30
siesta:      3.81799   9.84160   6.79856  1       31
siesta:      5.17515   9.80903   9.11864  1       32
siesta:      7.86062   9.88586   9.12081  1       33
siesta:      1.09686  10.00727   2.13753  1       34
siesta:     -0.20105   9.46678   4.45277  1       35
siesta:      1.15027   9.48569   6.77730  1       36
siesta:     -0.25045   9.86670  -0.20223  1       37
siesta:     -2.87633   9.13157   4.45080  1       38
siesta:     -0.18874   9.23108   9.10500  1       39
siesta:     -2.86903   8.96520   9.10381  1       40
siesta:     19.92560   9.14562   2.13338  1       41
siesta:     19.93452   8.93098   6.78258  1       42
siesta:     19.92043   9.13810  -2.51291  1       43
siesta:     17.23455   8.92838  -7.15657  1       44
siesta:     19.93298   8.91936  -7.16041  1       45
siesta:     -2.87954   9.35640  -0.19715  1       46
siesta:     -2.88101   9.12747  -4.83849  1       47
siesta:      4.97864  13.25532  -0.15732  2       48
siesta:      9.73403  15.14012   1.00237  2       49
siesta:      5.68495  15.07206   4.75700  2       50
siesta:      6.00278  18.81562   0.78179  2       51
siesta:      8.03817  17.08043   3.32600  3       52
siesta:      4.07258  17.49122   3.13952  3       53
siesta:      4.05630  21.45115  -0.61124  3       54
siesta:      3.06289  20.76395   0.43897  3       55
siesta:      9.47595  17.85043  -1.29917  3       56
siesta:      8.58631  19.68228  -1.40172  3       57
siesta:      5.52731  15.12719   8.60072  3       58
siesta:      5.63413  16.61048   8.18622  3       59

siesta: System type = slab      

initatomlists: Number of atoms, orbitals, and projectors:     59   711   888

siesta: ******************** Simulation parameters ****************************
siesta:
siesta: The following are some of the parameters of the simulation.
siesta: A complete list of the parameters used, including default values,
siesta: can be found in file out.fdf
siesta:
redata: Non-Collinear-spin run           =     F
redata: SpinPolarized (Up/Down) run      =     T
redata: Number of spin components        =     2
redata: Long output                      =     F
redata: Number of Atomic Species         =        3
redata: Charge density info will appear in .RHO file
redata: Write Mulliken Pop.              =     NO
redata: Mesh Cutoff                      =   450.0000  Ry
redata: Net charge of the system         =     0.0000 |e|
redata: Max. number of SCF Iter          =      500
redata: Broyden mixing with     4 saved histories.
redata: Broyden supersedes Pulay!
redata: Mix DM in first SCF step ?       =     F
redata: Write Pulay info on disk?        =     F
redata: Discard 1st Pulay DM after  kick =     F
redata: New DM Mixing Weight             =     0.0500
redata: New DM Occupancy tolerance       = 0.000000000001
redata: No kicks to SCF
redata: DM Mixing Weight for Kicks       =     0.5000
redata: DM Tolerance for SCF             =     0.000100
redata: Require Energy convergence for SCF =     F
redata: DM Energy tolerance for SCF      =     0.000100 eV
redata: Require Harris convergence for SCF =     F
redata: DM Harris energy tolerance for SCF =     0.000100 eV
redata: Antiferro initial spin density   =     F
redata: Using Saved Data (generic)   =     T
redata: Use continuation files for DM    =     T
redata: Neglect nonoverlap interactions  =     F
redata: Method of Calculation            =     Diagonalization
redata: Divide and Conquer               =     T
redata: Electronic Temperature           =     0.0019  Ry
redata: Fix the spin of the system       =     F
redata: Dynamics option                  =     CG coord. optimization
redata: Variable cell                    =     F
redata: Use continuation files for CG    =     T
redata: Max atomic displ per move        =     0.2000  Bohr
redata: Maximum number of CG moves       =        0
redata: Force tolerance                  =     0.0016  Ry/Bohr
redata: ***********************************************************************
Total number of electrons:   236.000000
Total ionic charge:   236.000000

* ProcessorY, Blocksize:    4  23

k-point displ. along   2 input, could be:     0.50    0.00
 Kpoints in:            8 . Kpoints trimmed:            8

siesta: k-grid: Number of k-points =     8
siesta: k-grid: Cutoff (effective) =    15.250 Ang
siesta: k-grid: Supercell and displacements
siesta: k-grid:    4   0   0      0.500
siesta: k-grid:    0   1   0      0.500
siesta: k-grid:    0   0   4      0.500
Naive supercell factors:     2    1    3

superc: Internal auxiliary supercell:     2 x     1 x     3  =       6
superc: Number of atoms, orbitals, and projectors:    354   4266   5328

siesta:                 ==============================
                            Begin CG move =      0
                        ==============================

outcoor: Atomic coordinates (Ang):                          
    2.02314900    5.18709400   -3.78924400   1       1  C_pbe
    2.72486300    5.45919800   -2.56796300   1       2  C_pbe
    1.92553500    5.72451800   -1.43935400   1       3  C_pbe
    0.57343600    5.33694400   -1.34739400   1       4  C_pbe
   -0.11298400    5.02707000   -2.56502200   1       5  C_pbe
    0.60660800    5.02884000   -3.79168500   1       6  C_pbe
    4.34373200    5.94491200   -0.11203700   1       7  C_pbe
    4.89899800    5.51517700   -1.34376700   1       8  C_pbe
    4.16220000    5.43540900   -2.56543800   1       9  C_pbe
    4.92382200    5.62218600    1.14918000   1      10  C_pbe
    6.30892100    5.22776300    1.14081700   1      11  C_pbe
    6.99896100    5.07842200   -0.09766400   1      12  C_pbe
    6.29153800    5.16257700   -1.33002700   1      13  C_pbe
    4.86709400    5.22063000   -3.77948700   1      14  C_pbe
    6.28400300    5.04339400   -3.78522700   1      15  C_pbe
    6.98987800    4.96981500   -2.55608100   1      16  C_pbe
    8.40677500    4.80096100   -2.55659500   1      17  C_pbe
    9.12024900    4.80259900   -1.32712100   1      18  C_pbe
    8.40774800    4.87518000   -0.09826600   1      19  C_pbe
    9.12199200    4.81986100    1.13020100   1      20  C_pbe
    8.41079500    4.83076000    2.36276500   1      21  C_pbe
    6.99894700    5.02731800    2.36857700   1      22  C_pbe
    6.28802500    5.09274200    3.59677900   1      23  C_pbe
    4.87656600    5.29179700    3.59845700   1      24  C_pbe
    4.17584500    5.56477800    2.38579200   1      25  C_pbe
    2.72604500    5.51454400    2.37879000   1      26  C_pbe
    1.94121600    5.64749300    1.21079500   1      27  C_pbe
    9.12173700    4.73984200    3.59196500   1      28  C_pbe
    8.40565500    4.76981200    4.82306600   1      29  C_pbe
    6.98828000    4.93772500    4.82564700   1      30  C_pbe
    2.02039500    5.20795000    3.59764300   1      31  C_pbe
    2.73857200    5.19071500    4.82537300   1      32  C_pbe
    4.15965700    5.23137000    4.82652200   1      33  C_pbe
    0.58043200    5.29561700    1.13113100   1      34  C_pbe
   -0.10638900    5.00960100    2.35630200   1      35  C_pbe
    0.60869800    5.01960900    3.58639100   1      36  C_pbe
   -0.13253200    5.22122900   -0.10701700   1      37  C_pbe
   -1.52208600    4.83221600    2.35526200   1      38  C_pbe
   -0.09987800    4.88487400    4.81815400   1      39  C_pbe
   -1.51822600    4.74417700    4.81752600   1      40  C_pbe
   10.54417000    4.83965000    1.12893600   1      41  C_pbe
   10.54889200    4.72607100    3.58918700   1      42  C_pbe
   10.54143400    4.83567300   -1.32977400   1      43  C_pbe
    9.12012500    4.72469300   -3.78709400   1      44  C_pbe
   10.54807300    4.71992100   -3.78912300   1      45  C_pbe
   -1.52378700    4.95119100   -0.10432900   1      46  C_pbe
   -1.52456400    4.83004700   -2.56041800   1      47  C_pbe
    2.63458000    7.01441100   -0.08325000   2      48  Pd_pbe
    5.15102700    8.01180300    0.53043200   2      49  Pd_pbe
    3.00834400    7.97579000    2.51729600   2      50  Pd_pbe
    3.17653100    9.95679100    0.41370700   2      51  Pd_pbe
    4.25361600    9.03857200    1.76004300   3      52  H_pbe
    2.15511500    9.25595000    1.66136000   3      53  H_pbe
    2.14649900   11.35145500   -0.32345500   3      54  H_pbe
    1.62081300   10.98780600    0.23229500   3      55  H_pbe
    5.01445300    9.44603700   -0.68749300   3      56  H_pbe
    4.54367900   10.41541100   -0.74175600   3      57  H_pbe
    2.92492600    8.00495900    4.55130400   3      58  H_pbe
    2.98145100    8.78988500    4.33196100   3      59  H_pbe

superc: Internal auxiliary supercell:     2 x     1 x     3  =       6
superc: Number of atoms, orbitals, and projectors:    354   4266   5328

outcell: Unit cell vectors (Ang):
       12.780000    0.000000    0.000000
        0.000000   30.500000    0.000000
        0.000000    0.000000    9.840000

outcell: Cell vector modules (Ang)   :   12.780000   30.500000    9.840000
outcell: Cell angles (23,13,12) (deg):     90.0000     90.0000     90.0000
outcell: Cell volume (Ang**3)        :   3835.5336
New_DM. Step:     1
Initializing Density Matrix...

initdm: Initial spin polarization (Qup-Qdown) =  110.000000
New grid distribution:   1
           1       1:   90    1:   50    1:    8
           2       1:   90    1:   50    9:   16
           3       1:   90    1:   50   17:   24
           4       1:   90    1:   50   25:   32
           5       1:   90    1:   50   33:   40
           6       1:   90    1:   50   41:   48
           7       1:   90    1:   50   49:   56
           8       1:   90    1:   50   57:   64
           9       1:   90   51:  100    1:    8
          10       1:   90   51:  100    9:   16
          11       1:   90   51:  100   17:   24
          12       1:   90   51:  100   25:   32
          13       1:   90   51:  100   33:   40
          14       1:   90   51:  100   41:   48
          15       1:   90   51:  100   49:   56
          16       1:   90   51:  100   57:   64
          17       1:   90  101:  150    1:    8
          18       1:   90  101:  150    9:   16
          19       1:   90  101:  150   17:   24
          20       1:   90  101:  150   25:   32
          21       1:   90  101:  150   33:   40
          22       1:   90  101:  150   41:   48
          23       1:   90  101:  150   49:   56
          24       1:   90  101:  150   57:   64
          25       1:   90  151:  200    1:    8
          26       1:   90  151:  200    9:   16
          27       1:   90  151:  200   17:   24
          28       1:   90  151:  200   25:   32
          29       1:   90  151:  200   33:   40
          30       1:   90  151:  200   41:   48
          31       1:   90  151:  200   49:   56
          32       1:   90  151:  200   57:   64

InitMesh: MESH =   180 x   400 x   128 =     9216000
InitMesh: (bp) =    90 x   200 x    64 =     1152000
InitMesh: Mesh cutoff (required, used) =   450.000   467.661 Ry
ExtMesh (bp) on 0 =   218 x   166 x   124 =     4487312
New grid distribution:   2
           1       1:   52    1:   25    1:   32
           2      32:   90   42:   45    1:   29
           3      43:   90   39:   41    1:   32
           4       1:   46   30:   32    1:   31
           5       1:   52    1:   25   33:   64
           6      32:   90   42:   45   30:   64
           7      43:   90   36:   38    1:   32
           8       1:   46   33:   35    1:   31
           9      32:   90   46:  200    1:   29
          10       1:   52   26:   29   33:   64
          11      43:   90   39:   41   33:   64
          12      47:   90   30:   32    1:   32
          13      32:   90   46:  200   30:   64
          14       1:   52   26:   29    1:   32
          15      43:   90   36:   38   33:   64
          16      47:   90   30:   32   33:   64
          17       1:   31   49:  200    1:   25
          18       1:   31   42:   46   26:   64
          19       1:   46   30:   32   32:   64
          20      47:   90   33:   35   33:   64
          21       1:   31   47:  200   26:   64
          22       1:   31   42:   48    1:   25
          23       1:   46   33:   35   32:   64
          24      47:   90   33:   35    1:   32
          25      53:   90    1:   25   33:   64
          26      53:   90   26:   29    1:   32
          27       1:   42   39:   41   31:   64
          28       1:   42   36:   38    1:   30
          29      53:   90    1:   25    1:   32
          30      53:   90   26:   29   33:   64
          31       1:   42   36:   38   31:   64
          32       1:   42   39:   41    1:   30
New grid distribution:   3
           1       1:   49    1:   21    1:   32
           2      28:   90   61:   71    1:   24
           3       1:   45   29:   36    1:   32
           4      41:   90   44:   49   31:   64
           5       1:   49    1:   21   33:   64
           6      41:   90   51:   60    1:   30
           7       1:   45   29:   36   33:   64
           8      50:   90   21:   28   33:   64
           9       1:   27   75:  200    1:   29
          10      46:   90   29:   36   33:   64
          11       1:   40   53:   60    1:   32
          12      28:   90   61:   70   25:   64
          13      50:   90    1:   20   33:   64
          14      41:   90   50:   60   31:   64
          15       1:   49   22:   28    1:   32
          16       1:   40   44:   51   33:   64
          17       1:   27   61:   73   30:   64
          18       1:   49   22:   28   33:   64
          19       1:   45   37:   43   33:   64
          20      28:   90   71:  200   25:   64
          21       1:   27   74:  200   30:   64
          22       1:   40   44:   52    1:   32
          23       1:   27   61:   74    1:   29
          24       1:   45   37:   43    1:   32
          25      28:   90   72:  200    1:   24
          26       1:   40   52:   60   33:   64
          27      41:   90   44:   50    1:   30
          28      46:   90   37:   43   33:   64
          29      50:   90    1:   20    1:   32
          30      46:   90   29:   36    1:   32
          31      50:   90   21:   28    1:   32
          32      46:   90   37:   43    1:   32
Setting up quadratic distribution...
ExtMesh (bp) on 0 =   180 x   141 x   148 =     3756240
PhiOnMesh: Number of (b)points on node 0 =                41600
PhiOnMesh: nlist on node 0 =               963946

stepf: Fermi-Dirac step function
 Broyden: No of relevant DM elements:      1067926
 maxit for broyden:            4
 cycle on maxit:  T
 variable weight:  T
 initial alpha:    5.0000000000000003E-002

siesta: Program's energy decomposition (eV):
siesta: Ebs     =     -3401.474552
siesta: Eions   =     15800.743038
siesta: Ena     =      2717.781021
siesta: Ekin    =      6977.752274
siesta: Enl     =     -1594.421910
siesta: DEna    =        -0.000007
siesta: DUscf   =         0.000000
siesta: DUext   =         0.000000
siesta: Exc     =     -3477.939049
siesta: eta*DQ  =         0.000000
siesta: Emadel  =         0.000000
siesta: Emeta   =         0.000000
siesta: Emolmec =         0.000000
siesta: Ekinion =         0.000000
siesta: Eharris =    -10955.279648
siesta: Etot    =    -11177.570710
siesta: FreeEng =    -11177.570710

siesta: iscf   Eharris(eV)      E_KS(eV)   FreeEng(eV)   dDmax  Ef(eV)
siesta:    1   -10955.2796   -11177.5707   -11177.5707  0.9265 -5.1910
timer: Routine,Calls,Time,% =    IterSCF     1      18.196  57.79
siesta:    2   -13573.2333   -10758.2534   -10758.2938117.7332  2.0675
siesta:    3   -11333.1492   -10814.4408   -10814.4716  4.6909 -3.4981
siesta:    4   -11146.2263   -10833.1459   -10833.1894  5.6477 -4.7262
siesta:    5   -11099.9921   -10848.0479   -10848.0742  5.4382 -5.1031
siesta:    6   -11068.8200   -10865.4562   -10865.4751  5.0432 -5.0042
Cycling the Broyden process...
siesta:    7   -11057.0875   -10877.9912   -10878.0082  4.7294 -4.8612
Cycling the Broyden process...
siesta:    8   -11041.5962   -10905.4984   -10905.5186  3.9884 -4.5255
Cycling the Broyden process...
siesta:    9   -11112.2718   -11009.1017   -11009.1208  1.2638 -1.5194
Cycling the Broyden process...
siesta:   10   -11081.2622   -11010.1062   -11010.1428  0.6214 -2.1178
Cycling the Broyden process...
siesta:   11   -11065.7107   -11013.1703   -11013.1916  0.4153 -2.3840
Cycling the Broyden process...
siesta:   12   -11054.1960   -11015.5472   -11015.5700  0.2304 -3.0387
Cycling the Broyden process...
siesta:   13   -11045.6933   -11018.6705   -11018.6868  0.2458 -3.4447
Cycling the Broyden process...
siesta:   14   -11040.0644   -11023.0983   -11023.0989  0.2182 -3.6585
Cycling the Broyden process...
siesta:   15   -11035.4345   -11030.2671   -11030.2676  0.1629 -3.9080
Cycling the Broyden process...
siesta:   16   -11034.4637   -11033.7121   -11033.7133  0.1184 -3.9842
Cycling the Broyden process...
siesta:   17   -11034.1328   -11034.7460   -11034.7462  0.0854 -4.0236
Cycling the Broyden process...
siesta:   18   -11034.2269   -11034.4636   -11034.4636  0.0405 -4.0810
Cycling the Broyden process...
siesta:   19   -11034.1417   -11033.7876   -11033.7876  0.0215 -4.0699
Cycling the Broyden process...
siesta:   20   -11034.1278   -11033.7462   -11033.7462  0.0182 -4.0593
Cycling the Broyden process...
siesta:   21   -11034.0978   -11033.7800   -11033.7801  0.0117 -4.0202
Cycling the Broyden process...
siesta:   22   -11034.0922   -11033.8851   -11033.8852  0.0058 -4.0176
Cycling the Broyden process...
siesta:   23   -11034.0917   -11034.0224   -11034.0224  0.0039 -4.0264
Cycling the Broyden process...
siesta:   24   -11034.0909   -11034.1259   -11034.1259  0.0037 -4.0313
Cycling the Broyden process...
siesta:   25   -11034.0907   -11034.1262   -11034.1262  0.0034 -4.0321
Cycling the Broyden process...
siesta:   26   -11034.0908   -11034.1174   -11034.1174  0.0031 -4.0317
Cycling the Broyden process...
siesta:   27   -11034.0908   -11034.1178   -11034.1178  0.0024 -4.0300
Cycling the Broyden process...
siesta:   28   -11034.0906   -11034.0980   -11034.0980  0.0008 -4.0267
Cycling the Broyden process...
siesta:   29   -11034.0906   -11034.0974   -11034.0974  0.0008 -4.0271
Cycling the Broyden process...
siesta:   30   -11034.0906   -11034.0997   -11034.0997  0.0008 -4.0280
Cycling the Broyden process...
siesta:   31   -11034.0906   -11034.1043   -11034.1043  0.0006 -4.0286
Cycling the Broyden process...
siesta:   32   -11034.0906   -11034.1024   -11034.1024  0.0006 -4.0286
Cycling the Broyden process...
siesta:   33   -11034.0906   -11034.1008   -11034.1009  0.0005 -4.0284
Cycling the Broyden process...
siesta:   34   -11034.0906   -11034.1001   -11034.1002  0.0004 -4.0281
Cycling the Broyden process...
siesta:   35   -11034.0906   -11034.0967   -11034.0967  0.0004 -4.0278
Cycling the Broyden process...
siesta:   36   -11034.0906   -11034.0941   -11034.0941  0.0003 -4.0281
Cycling the Broyden process...
siesta:   37   -11034.0906   -11034.0932   -11034.0932  0.0003 -4.0282
Cycling the Broyden process...
siesta:   38   -11034.0906   -11034.0914   -11034.0915  0.0001 -4.0282
Cycling the Broyden process...
siesta:   39   -11034.0906   -11034.0906   -11034.0907  0.0001 -4.0282

siesta: E_KS(eV) =           -11034.0905

siesta: E_KS - E_eggbox =    -11034.0905

siesta: Atomic forces (eV/Ang):
     1   -0.079573    0.018045    0.041287
     2    0.027753    0.010120    0.030931
     3    0.017227    0.003592   -0.023590
     4   -0.005263   -0.009462    0.003059
     5   -0.000610    0.002015   -0.009341
     6   -0.067224   -0.029011   -0.030459
     7   -0.002180   -0.075955   -0.056741
     8   -0.049639    0.024837    0.076165
     9   -0.017362   -0.027777   -0.037616
    10    0.008465    0.030183   -0.037655
    11    0.010853    0.034346   -0.002314
    12   -0.001047   -0.000718    0.010826
    13    0.037683   -0.005102   -0.030495
    14   -0.021191    0.003011    0.022123
    15   -0.044586    0.007089    0.025402
    16   -0.002485   -0.007790    0.011321
    17   -0.013565   -0.006217   -0.005258
    18    0.000893    0.005789    0.010003
    19   -0.002328   -0.001201    0.012051
    20   -0.005688   -0.005502    0.002431
    21    0.008456   -0.008460   -0.009389
    22    0.001752    0.005100   -0.033698
    23   -0.023506   -0.000966    0.010063
    24   -0.009490    0.003170    0.016874
    25    0.005684    0.012176   -0.021342
    26   -0.024105    0.001667    0.009573
    27    0.015510   -0.003507   -0.013430
    28    0.011753   -0.006506   -0.024211
    29   -0.011875   -0.006198   -0.023124
    30    0.045653   -0.005364   -0.006857
    31   -0.001009   -0.008790   -0.001301
    32    0.079091   -0.022548   -0.044395
    33    0.042355    0.003829   -0.016535
    34   -0.015339    0.004007    0.023356
    35   -0.022870   -0.001501    0.010954
    36    0.003086   -0.001202   -0.009703
    37   -0.014999    0.001014    0.004795
    38    0.039247   -0.027213    0.121242
    39    0.073760    0.016111    0.012825
    40    0.111707    0.011872    0.145614
    41   -0.000081    0.023939   -0.119724
    42   -0.059498    0.026584   -0.165586
    43    0.014925    0.008090   -0.083997
    44   -0.000334   -0.000051    0.027606
    45   -0.070100    0.010295   -0.052439
    46    0.010557   -0.014452    0.105444
    47    0.017128   -0.008789    0.066811
    48   -0.015278    0.014896    0.006726
    49    0.012677    0.268349   -0.209374
    50   -0.069505   -0.007384    0.014117
    51    0.565627   -0.109304   -0.306031
    52   -0.010622   -0.008420   -0.008357
    53   -0.015598   -0.017189    0.030787
    54    0.067185    0.016838   -0.044741
    55    0.051413   -0.035061    0.025333
    56   -0.928573    1.023974    0.412936
    57    0.356094   -1.128645    0.090780
    58   -0.010569    0.008869    0.008368
    59   -0.010417   -0.003802    0.003854
----------------------------------------
   Tot    0.010025    0.005719   -0.034050
----------------------------------------
   Max    1.128645
   Res    0.155051    sqrt( Sum f_i^2 / 3N )
----------------------------------------
   Max    1.128645    constrained

siesta: Electric dipole (a.u.)  =    0.000000    0.949259    0.000000
siesta: Electric dipole (Debye) =    0.000000    2.412777    0.000000

Stress-tensor-Voigt (kbar):       -8.55        0.64      -12.92       -0.38       -0.08       -0.74
(Free)E + p*V (eV/cell)   -11017.4661
Target enthalpy (eV/cell)   -11034.0906

siesta: Program's energy decomposition (eV):
siesta: Ebs     =     -2896.475471
siesta: Eions   =     15800.743038
siesta: Ena     =      2717.781021
siesta: Ekin    =      7908.983251
siesta: Enl     =     -2221.887001
siesta: DEna    =      -207.075402
siesta: DUscf   =        20.648793
siesta: DUext   =         0.000000
siesta: Exc     =     -3451.798166
siesta: eta*DQ  =         0.000000
siesta: Emadel  =         0.000000
siesta: Emeta   =         0.000000
siesta: Emolmec =         0.000000
siesta: Ekinion =         0.000000
siesta: Eharris =    -11034.090645
siesta: Etot    =    -11034.090542
siesta: FreeEng =    -11034.090560

siesta: Final energy (eV):
siesta:  Band Struct. =   -2896.475471
siesta:       Kinetic =    7908.983251
siesta:       Hartree =   78230.975987
siesta:    Ext. field =       0.000000
siesta:   Exch.-corr. =   -3451.798166
siesta:  Ion-electron = -163466.435362
siesta:       Ion-ion =   69744.183747
siesta:       Ekinion =       0.000000
siesta:         Total =  -11034.090542

siesta: Atomic forces (eV/Ang):
siesta:      1   -0.079573    0.018045    0.041287
siesta:      2    0.027753    0.010120    0.030931
siesta:      3    0.017227    0.003592   -0.023590
siesta:      4   -0.005263   -0.009462    0.003059
siesta:      5   -0.000610    0.002015   -0.009341
siesta:      6   -0.067224   -0.029011   -0.030459
siesta:      7   -0.002180   -0.075955   -0.056741
siesta:      8   -0.049639    0.024837    0.076165
siesta:      9   -0.017362   -0.027777   -0.037616
siesta:     10    0.008465    0.030183   -0.037655
siesta:     11    0.010853    0.034346   -0.002314
siesta:     12   -0.001047   -0.000718    0.010826
siesta:     13    0.037683   -0.005102   -0.030495
siesta:     14   -0.021191    0.003011    0.022123
siesta:     15   -0.044586    0.007089    0.025402
siesta:     16   -0.002485   -0.007790    0.011321
siesta:     17   -0.013565   -0.006217   -0.005258
siesta:     18    0.000893    0.005789    0.010003
siesta:     19   -0.002328   -0.001201    0.012051
siesta:     20   -0.005688   -0.005502    0.002431
siesta:     21    0.008456   -0.008460   -0.009389
siesta:     22    0.001752    0.005100   -0.033698
siesta:     23   -0.023506   -0.000966    0.010063
siesta:     24   -0.009490    0.003170    0.016874
siesta:     25    0.005684    0.012176   -0.021342
siesta:     26   -0.024105    0.001667    0.009573
siesta:     27    0.015510   -0.003507   -0.013430
siesta:     28    0.011753   -0.006506   -0.024211
siesta:     29   -0.011875   -0.006198   -0.023124
siesta:     30    0.045653   -0.005364   -0.006857
siesta:     31   -0.001009   -0.008790   -0.001301
siesta:     32    0.079091   -0.022548   -0.044395
siesta:     33    0.042355    0.003829   -0.016535
siesta:     34   -0.015339    0.004007    0.023356
siesta:     35   -0.022870   -0.001501    0.010954
siesta:     36    0.003086   -0.001202   -0.009703
siesta:     37   -0.014999    0.001014    0.004795
siesta:     38    0.039247   -0.027213    0.121242
siesta:     39    0.073760    0.016111    0.012825
siesta:     40    0.111707    0.011872    0.145614
siesta:     41   -0.000081    0.023939   -0.119724
siesta:     42   -0.059498    0.026584   -0.165586
siesta:     43    0.014925    0.008090   -0.083997
siesta:     44   -0.000334   -0.000051    0.027606
siesta:     45   -0.070100    0.010295   -0.052439
siesta:     46    0.010557   -0.014452    0.105444
siesta:     47    0.017128   -0.008789    0.066811
siesta:     48   -0.015278    0.014896    0.006726
siesta:     49    0.012677    0.268349   -0.209374
siesta:     50   -0.069505   -0.007384    0.014117
siesta:     51    0.565627   -0.109304   -0.306031
siesta:     52   -0.010622   -0.008420   -0.008357
siesta:     53   -0.015598   -0.017189    0.030787
siesta:     54    0.067185    0.016838   -0.044741
siesta:     55    0.051413   -0.035061    0.025333
siesta:     56   -0.928573    1.023974    0.412936
siesta:     57    0.356094   -1.128645    0.090780
siesta:     58   -0.010569    0.008869    0.008368
siesta:     59   -0.010417   -0.003802    0.003854
siesta: ----------------------------------------
siesta:    Tot    0.010025    0.005719   -0.034050

siesta: Electric dipole (a.u.)  =    0.000000    0.949259    0.000000
siesta: Electric dipole (Debye) =    0.000000    2.412777    0.000000

siesta: Stress tensor (static) (eV/Ang**3):
siesta:    -0.005335   -0.000239   -0.000461
siesta:    -0.000239    0.000398   -0.000052
siesta:    -0.000461   -0.000052   -0.008066

siesta: Cell volume =       3835.533600 Ang**3

siesta: Pressure (static):
siesta:                Solid            Molecule  Units
siesta:           0.00004721          0.00005231  Ry/Bohr**3
siesta:           0.00433432          0.00480283  eV/Ang**3
siesta:           6.94442242          7.69506036  kBar
(Free)E+ p_basis*V_orbitals  =      -11002.131282
(Free)Eharris+ p_basis*V_orbitals  =      -11002.131278

siesta: Total spin polarization (Qup-Qdown) =    0.000123

siesta: Electric dipole (a.u.)  =    0.000000    0.949259    0.000000
siesta: Electric dipole (Debye) =    0.000000    2.412777    0.000000
>> End of run:   7-OCT-2020  16:21:25
