Siesta Version  : siesta-psml-R1--709-594
Architecture    : gfortran-mpi-example
Compiler version: GNU Fortran (Debian 4.9.2-10+deb8u1) 4.9.2
Compiler flags  : mpif90 -O2 -fbacktrace
PP flags        :  -DMPI -DMPI_TIMING  -DF2003
Libraries       :  /usr/lib/libscalapack-openmpi.so /usr/lib/liblapack.so -lblas /usr/lib/libbllacs-openmpi.so /usr/lib/libblacsCinit-openmpi.so /usr/lib/libblacsF77init-openmpi.so
PARALLEL version

* Running on 32 nodes in parallel
>> Start of run:   6-OCT-2020  13:05:44

                           ***********************       
                           *  WELCOME TO SIESTA  *       
                           ***********************       

reinit: Reading from standard input
reinit: Dumped input in INPUT_TMP.61735
************************** Dump of input data file ****************************
######################
# dir_neb1/neb1.fdf
######################
######################
# neb generated input
######################
SystemName  lbl_neb1
SystemLabel lbl_neb1
DM.Tolerance  1.00E-04
MaxSCFIterations      500
NetCharge        0
NumberOfAtoms       56
AtomicCoordinatesFormat    Ang
%block AtomicCoordinatesAndAtomicSpecies
      0.000156      1.596504      1.772283 1
      1.764031      1.596653      0.000375 1
     -3.523232      1.600120     -1.759321 1
     -1.763531      1.605563     -3.510699 1
     -3.535425      1.605896      1.774044 1
     -1.769385      1.592949      0.020636 1
     -3.572041      1.653846      5.299857 1
     -1.819899      1.616476      3.543889 1
     -3.523047      3.331358     -3.506297 1
     -3.525800      5.047407     -1.743924 1
     -1.767664      3.318028     -1.743242 1
     -1.765359      5.050262     -3.499935 1
     -3.536596      3.316974      0.011403 1
     -3.525945      5.066419      1.762563 1
     -1.770720      3.331762      1.772503 1
     -1.766619      5.038725      0.012720 1
     -3.535381      3.354415      3.525137 1
     -3.529212      5.093651      5.275477 1
     -1.784633      3.350852      5.290855 1
     -1.769121      5.063942      3.525032 1
     -0.007541      1.601808     -1.748606 1
      1.755985      1.611878     -3.507881 1
     -0.030890      1.600678      5.305379 1
      1.743522      1.581700      3.538315 1
     -0.006787      3.326485     -3.511975 1
     -0.013423      5.044591     -1.738966 1
      1.747145      3.341206     -1.745245 1
      1.748899      5.068717     -3.497783 1
     -0.000671      3.314926      0.023197 1
     -0.010967      5.050784      1.772124 1
      1.743059      3.334253      1.777610 1
      1.739457      5.061381      0.022945 1
     -0.019131      3.337480      3.535333 1
     -0.011214      5.056663      5.293416 1
      1.739738      3.326118      5.294865 1
      1.748829      5.052003      3.538627 1
      3.510813      1.592626     -1.741570 1
      5.266956      1.622755     -3.504988 1
      3.502388      1.580736      1.766810 1
      5.253085      1.586841      0.017912 1
      3.498904      1.594680      5.293664 1
      5.254724      1.594845      3.534255 1
      3.508932      3.340102     -3.487928 1
      3.504709      5.069610     -1.737845 1
      5.267788      3.345425     -1.739248 1
      5.263777      5.072471     -3.492561 1
      3.505200      3.368370      0.019596 1
      3.503495      5.060008      1.790323 1
      5.264261      3.331661      1.782284 1
      5.268178      5.063433      0.030409 1
      3.491594      3.309885      3.527089 1
      3.499427      5.041118      5.297944 1
      5.256509      3.317524      5.296942 1
      5.258158      5.045190      3.544834 1
     -0.197608      0.825423      3.355856 2
      3.503827      1.060481      0.022680 2
%endblock AtomicCoordinatesAndAtomicSpecies
######################
# user input template
######################
NumberOfSpecies        2
%block ChemicalSpeciesLabel
  1  28  Ni
  2   1  H
%endblock ChemicalSpeciesLabel
# Basis
PAO.EnergyShift         0.005 Ry
PAO.SoftDefault         true
PAO.BasisType           split
PAO.BasisSize           DZP
AtomicCoorFormatOut     ScaledCartesian
LatticeConstant       10.5504 Ang
%block LatticeParameters
 1.0 3.0 1.0 90.0 90.0 90.0
%endblock LatticeParameters
%block kgrid_Monkhorst_Pack
 4 0 0 0.5
 0 1 0 0.5
 0 0 4 0.5
%endblock kgrid_Monkhorst_Pack
xc.functional        GGA           # Exchange-correlation functional
xc.authors           PBE           # Exchange-correlation version
SpinPolarized        true         # Logical parameters are: yes or no
# SCF options
DM.MixingWeight       0.030         # New DM amount for next SCF cycle
MeshCutoff             450 Ry
DM.NumberBroyden       6
                                    # between input and output DM
DM.UseSaveDM          true          # to use continuation files
DM.NumberPulay        5
SCF.DM.Tolerance       0.0001
#SCF.MIX                DM
SCF.H.Converge         false
SolutionMethod        diagon        # OrderN or Diagon
ElectronicTemperature 50 K       # Temp. for Fermi smearing
WarningMinimumAtomicDistance 0.5 bohr
MD.TypeOfRun          CG  # MD options annealing
MD.NumCGsteps         0
************************** End of input data file *****************************

reinit: -----------------------------------------------------------------------
reinit: System Name: lbl_neb1
reinit: -----------------------------------------------------------------------
reinit: System Label: lbl_neb1
reinit: -----------------------------------------------------------------------

initatom: Reading input for the pseudopotentials and atomic orbitals ----------
Species number:   1 Atomic number:   28 Label: Ni
Species number:   2 Atomic number:    1 Label: H

Ground state valence configuration:   4s02  3d08

Reading pseudopotential from: Ni.psml

PSML file version: 1.1
Using libxc ids:  101 130
GGA--PBE XC_GGA_X_PBE--XC_GGA_C_PBE pb
 Using ATOM defaults for log grid...
PSML uuid: 020bdba0-be42-11e7-6ded-a592ddfb3399
Dumping pseudopotential information in formatted form in Ni.psdump
Ground state valence configuration:   1s01

Reading pseudopotential from: H.psml

PSML file version: 1.1
Using libxc ids:  101 130
GGA--PBE XC_GGA_X_PBE--XC_GGA_C_PBE pb
 Using ATOM defaults for log grid...
PSML uuid: f95fa9b0-be40-11e7-634a-9594ffff953f
Dumping pseudopotential information in formatted form in H.psdump
Semicore shell(s) with  8 electrons included in the valence for
Ni

Valence configuration for pseudopotential generation:
3s( 2.00) rc: 1.26
3p( 6.00) rc: 1.35
3d( 8.00) rc: 1.66
  -- Semicore analysis
For l=0, gen_n, nval_gs: 3 4
* There are  1  semicore shells
For l=1, gen_n, nval_gs: 3 4
* There are  1  semicore shells

Valence configuration for pseudopotential generation:
1s( 1.00) rc: 1.01
2p( 0.00) rc: 0.71
For Ni, standard SIESTA heuristics set lmxkb to 3
 (one more than the basis l, including polarization orbitals).
Use PS.lmax or PS.KBprojectors blocks to override.
For H, standard SIESTA heuristics set lmxkb to 2
 (one more than the basis l, including polarization orbitals).
Use PS.lmax or PS.KBprojectors blocks to override.
Pseudopotential only contains V_ls up to l=2 -- lmxkb reset.
Pseudopotential only contains V_ls up to l=1 -- lmxkb reset.

<basis_specs>
===============================================================================
Ni                   Z=  28    Mass=  58.690        Charge= 0.17977+309
Lmxo=2 Lmxkb= 2    BasisType=split      Semic=T
L=0  Nsemic=1  Cnfigmx=4
          n=1  nzeta=1  polorb=0  (3s)
            splnorm:   0.15000    
               vcte:    40.000    
               rinn:  -0.90000    
               qcoe:    0.0000    
               qyuk:    0.0000    
               qwid:   0.10000E-01
                rcs:    0.0000    
            lambdas:    1.0000    
          n=2  nzeta=2  polorb=1  (4s)  (to be polarized perturbatively)
            splnorm:   0.15000    
               vcte:    40.000    
               rinn:  -0.90000    
               qcoe:    0.0000    
               qyuk:    0.0000    
               qwid:   0.10000E-01
                rcs:    0.0000      0.0000    
            lambdas:    1.0000      1.0000    
L=1  Nsemic=1  Cnfigmx=4
          n=1  nzeta=1  polorb=0  (3p)
            splnorm:   0.15000    
               vcte:    40.000    
               rinn:  -0.90000    
               qcoe:    0.0000    
               qyuk:    0.0000    
               qwid:   0.10000E-01
                rcs:    0.0000    
            lambdas:    1.0000    
          n=2  nzeta=0  polorb=0  (4p)  (empty shell -- could be pol. orbital)
L=2  Nsemic=0  Cnfigmx=3
          n=1  nzeta=2  polorb=0  (3d)
            splnorm:   0.15000    
               vcte:    40.000    
               rinn:  -0.90000    
               qcoe:    0.0000    
               qyuk:    0.0000    
               qwid:   0.10000E-01
                rcs:    0.0000      0.0000    
            lambdas:    1.0000      1.0000    
-------------------------------------------------------------------------------
L=0  Nkbl=2  erefs: 0.17977+309 0.17977+309
L=1  Nkbl=2  erefs: 0.17977+309 0.17977+309
L=2  Nkbl=1  erefs: 0.17977+309
===============================================================================
</basis_specs>

atom: Called for Ni                    (Z =  28)

read_vps: Pseudopotential generation method:
read_vps: ONCVPSP-3.Hamann's oncvpsp                        
Total valence charge:   18.00000

read_vps: Pseudopotential includes a core correction:
read_vps: Pseudo-core for xc-correction

xc_check: Exchange-correlation functional:
xc_check: GGA Perdew, Burke & Ernzerhof 1996
Got Vlocal (oncv-fit) from psml data
Choosing vlocal chloc cutoff:  3.214809
qtot up to nchloc:   17.99990243
atom: Maximum radius forchloc:    3.21481
atom: Maximum radius for r*vlocal+2*Zval:    3.21481
Reading KB projs from Ni psml data
Using scalar-relativistic projectors in PSML file

PSML: Kleinman-Bylander projectors: 
   l= 0   rc=  1.290754   Ekb= 12.509070
   l= 0   rc=  1.290754   Ekb= -0.503495
   l= 1   rc=  1.374007   Ekb= -5.680418
   l= 1   rc=  1.374007   Ekb= -0.775211
   l= 2   rc=  1.699346   Ekb=-14.446879
   l= 2   rc=  1.699346   Ekb= -5.088878

PSML: Total number of  Kleinman-Bylander projectors:  18
atom: -------------------------------------------------------------------------

atom: SANKEY-TYPE ORBITALS:
atom: Selected multiple-zeta basis: split     

SPLIT: Orbitals with angular momentum L= 0

SPLIT: Basis orbitals for state 3s

SPLIT: PAO cut-off radius determined from an
SPLIT: energy shift=  0.005000 Ry

   izeta = 1
                 lambda =    1.000000
                     rc =    2.322763
                 energy =   -8.157301
                kinetic =    3.813094
    potential(screened) =  -11.970395
       potential(ionic) =  -45.880495

SPLIT: Basis orbitals for state 4s

SPLIT: PAO cut-off radius determined from an
SPLIT: energy shift=  0.005000 Ry

   izeta = 1
                 lambda =    1.000000
                     rc =    6.805850
                 energy =   -0.504647
                kinetic =    1.434503
    potential(screened) =   -1.939150
       potential(ionic) =  -18.003523

   izeta = 2
                 rmatch =    5.300381
              splitnorm =    0.150000
                 energy =   -0.436951
                kinetic =    2.150592
    potential(screened) =   -2.587543
       potential(ionic) =  -20.891951

SPLIT: Orbitals with angular momentum L= 1

SPLIT: Basis orbitals for state 3p

SPLIT: PAO cut-off radius determined from an
SPLIT: energy shift=  0.005000 Ry

   izeta = 1
                 lambda =    1.000000
                     rc =    2.632047
                 energy =   -5.241982
                kinetic =    9.311617
    potential(screened) =  -14.553599
       potential(ionic) =  -47.421040

SPLIT: Orbitals with angular momentum L= 2

SPLIT: Basis orbitals for state 3d

SPLIT: PAO cut-off radius determined from an
SPLIT: energy shift=  0.005000 Ry

   izeta = 1
                 lambda =    1.000000
                     rc =    4.232423
                 energy =   -0.647402
                kinetic =   11.660096
    potential(screened) =  -12.307497
       potential(ionic) =  -41.152073

   izeta = 2
                 rmatch =    1.974373
              splitnorm =    0.150000
                 energy =   -0.178323
                kinetic =   15.848363
    potential(screened) =  -16.026686
       potential(ionic) =  -47.849154

POLgen: Perturbative polarization orbital with L=  1

POLgen: Polarization orbital for state 4s

   izeta = 1
                     rc =    6.805850
                 energy =    0.149901
                kinetic =    1.864377
    potential(screened) =   -1.714475
       potential(ionic) =  -15.352870
atom: Total number of Sankey-type orbitals: 19

atm_pop: Valence configuration (for local Pseudopot. screening):
 3s( 2.00) 4s( 2.00)                                                  
 3p( 6.00) 4p( 0.00)                                                  
 3d( 8.00)                                                            
Vna: chval, zval:   18.00000  18.00000

Vna:  Cut-off radius for the neutral-atom potential:   6.805850
comcore: Pseudo-core radius Rcore=  1.831705

atom: _________________________________________________________________________

<basis_specs>
===============================================================================
H                    Z=   1    Mass=  1.0100        Charge= 0.17977+309
Lmxo=1 Lmxkb= 1    BasisType=split      Semic=F
L=0  Nsemic=0  Cnfigmx=1
          n=1  nzeta=2  polorb=1  (1s)  (to be polarized perturbatively)
            splnorm:   0.15000    
               vcte:    40.000    
               rinn:  -0.90000    
               qcoe:    0.0000    
               qyuk:    0.0000    
               qwid:   0.10000E-01
                rcs:    0.0000      0.0000    
            lambdas:    1.0000      1.0000    
L=1  Nsemic=0  Cnfigmx=2
          n=1  nzeta=0  polorb=0  (2p)  (perturbative polarization orbital)
-------------------------------------------------------------------------------
L=0  Nkbl=1  erefs: 0.17977+309
L=1  Nkbl=1  erefs: 0.17977+309
===============================================================================
</basis_specs>

atom: Called for H                     (Z =   1)

read_vps: Pseudopotential generation method:
read_vps: ONCVPSP-3.Hamann's oncvpsp                        
Total valence charge:    1.00000

xc_check: Exchange-correlation functional:
xc_check: GGA Perdew, Burke & Ernzerhof 1996
Got Vlocal (oncv-fit) from psml data
Choosing vlocal chloc cutoff:  1.937157
qtot up to nchloc:    1.00004915
atom: Maximum radius forchloc:    1.93716
atom: Maximum radius for r*vlocal+2*Zval:    1.93716
Reading KB projs from H psml data
Using scalar-relativistic projectors in PSML file

PSML: Kleinman-Bylander projectors: 
   l= 0   rc=  1.022836   Ekb= -3.402247
   l= 0   rc=  1.022836   Ekb= -1.068968
   l= 1   rc=  0.720049   Ekb= -1.006642

PSML: Total number of  Kleinman-Bylander projectors:   5
atom: -------------------------------------------------------------------------

atom: SANKEY-TYPE ORBITALS:
atom: Selected multiple-zeta basis: split     

SPLIT: Orbitals with angular momentum L= 0

SPLIT: Basis orbitals for state 1s

SPLIT: PAO cut-off radius determined from an
SPLIT: energy shift=  0.005000 Ry

   izeta = 1
                 lambda =    1.000000
                     rc =    5.752124
                 energy =   -0.471773
                kinetic =    0.922109
    potential(screened) =   -1.393882
       potential(ionic) =   -1.916644

   izeta = 2
                 rmatch =    4.002347
              splitnorm =    0.150000
                 energy =   -0.377275
                kinetic =    1.478010
    potential(screened) =   -1.855285
       potential(ionic) =   -2.403383

POLgen: Perturbative polarization orbital with L=  1

POLgen: Polarization orbital for state 1s

   izeta = 1
                     rc =    5.752124
                 energy =    0.606949
                kinetic =    1.233901
    potential(screened) =   -0.626952
       potential(ionic) =   -1.104659
atom: Total number of Sankey-type orbitals:  5

atm_pop: Valence configuration (for local Pseudopot. screening):
 1s( 1.00)                                                            
 2p( 0.00)                                                            
Vna: chval, zval:    1.00000   1.00000

Vna:  Cut-off radius for the neutral-atom potential:   5.752124

atom: _________________________________________________________________________

prinput: Basis input 
* WARNING: This information might be incomplete!!!
----------------------------------------------------------

PAO.BasisType split     

%block ChemicalSpeciesLabel
    1   28 Ni                      # Species index, atomic number, species label
    2    1 H                       # Species index, atomic number, species label
%endblock ChemicalSpeciesLabel

%block PAO.Basis                 # Define Basis set
# WARNING: This information might be incomplete!!!
Ni                    4                    # Species label, number of l-shells
 n=3   0   1                         # n, l, Nzeta 
   2.323   
   1.000   
 n=4   0   2 P   1                   # n, l, Nzeta, Polarization, NzetaPol
   6.806      5.300   
   1.000      1.000   
 n=3   1   1                         # n, l, Nzeta 
   2.632   
   1.000   
 n=3   2   2                         # n, l, Nzeta 
   4.232      1.974   
   1.000      1.000   
H                     1                    # Species label, number of l-shells
 n=1   0   2 P   1                   # n, l, Nzeta, Polarization, NzetaPol
   5.752      4.002   
   1.000      1.000   
%endblock PAO.Basis

prinput: ----------------------------------------------------------------------

 CH_OVERLAP: Z1=   17.995874052184416       ZVAL1=   18.000000000000000     
 CH_OVERLAP: Z2=   17.995874052184416       ZVAL2=   18.000000000000000     
 CH_OVERLAP: Z1=  0.99161149149560424       ZVAL1=   1.0000000000000000     
 CH_OVERLAP: Z2=  0.99161149149560424       ZVAL2=   1.0000000000000000     
 CH_OVERLAP: Z1=  0.99161149149560424       ZVAL1=   1.0000000000000000     
 CH_OVERLAP: Z2=   17.995874052184416       ZVAL2=   18.000000000000000     
coor:   Atomic-coordinates input format  =     Cartesian coordinates
coor:                                          (in Angstroms)

siesta: Atomic coordinates (Bohr) and species
siesta:      0.00029   3.01696   3.34913  1        1
siesta:      3.33354   3.01724   0.00071  1        2
siesta:     -6.65795   3.02379  -3.32464  1        3
siesta:     -3.33259   3.03408  -6.63426  1        4
siesta:     -6.68099   3.03470   3.35246  1        5
siesta:     -3.34365   3.01024   0.03900  1        6
siesta:     -6.75018   3.12532  10.01528  1        7
siesta:     -3.43911   3.05470   6.69698  1        8
siesta:     -6.65760   6.29536  -6.62594  1        9
siesta:     -6.66280   9.53822  -3.29554  1       10
siesta:     -3.34040   6.27017  -3.29425  1       11
siesta:     -3.33605   9.54362  -6.61392  1       12
siesta:     -6.68320   6.26817   0.02155  1       13
siesta:     -6.66307   9.57415   3.33076  1       14
siesta:     -3.34618   6.29612   3.34955  1       15
siesta:     -3.33843   9.52181   0.02404  1       16
siesta:     -6.68090   6.33893   6.66155  1       17
siesta:     -6.66925   9.62561   9.96921  1       18
siesta:     -3.37247   6.33220   9.99827  1       19
siesta:     -3.34316   9.56947   6.66135  1       20
siesta:     -0.01425   3.02698  -3.30439  1       21
siesta:      3.31833   3.04601  -6.62894  1       22
siesta:     -0.05837   3.02484  10.02572  1       23
siesta:      3.29478   2.98898   6.68645  1       24
siesta:     -0.01283   6.28615  -6.63667  1       25
siesta:     -0.02537   9.53290  -3.28617  1       26
siesta:      3.30163   6.31397  -3.29804  1       27
siesta:      3.30494   9.57849  -6.60985  1       28
siesta:     -0.00127   6.26430   0.04384  1       29
siesta:     -0.02072   9.54460   3.34883  1       30
siesta:      3.29391   6.30083   3.35920  1       31
siesta:      3.28710   9.56463   0.04336  1       32
siesta:     -0.03615   6.30693   6.68081  1       33
siesta:     -0.02119   9.55571  10.00311  1       34
siesta:      3.28763   6.28545  10.00585  1       35
siesta:      3.30481   9.54691   6.68704  1       36
siesta:      6.63448   3.00963  -3.29109  1       37
siesta:      9.95311   3.06656  -6.62347  1       38
siesta:      6.61856   2.98716   3.33879  1       39
siesta:      9.92690   2.99870   0.03385  1       40
siesta:      6.61197   3.01351  10.00358  1       41
siesta:      9.92999   3.01382   6.67878  1       42
siesta:      6.63092   6.31188  -6.59123  1       43
siesta:      6.62294   9.58018  -3.28405  1       44
siesta:      9.95468   6.32194  -3.28670  1       45
siesta:      9.94710   9.58558  -6.59999  1       46
siesta:      6.62387   6.36530   0.03703  1       47
siesta:      6.62065   9.56203   3.38322  1       48
siesta:      9.94802   6.29593   3.36803  1       49
siesta:      9.95542   9.56851   0.05746  1       50
siesta:      6.59816   6.25478   6.66523  1       51
siesta:      6.61296   9.52634  10.01167  1       52
siesta:      9.93337   6.26921  10.00977  1       53
siesta:      9.93648   9.53403   6.69877  1       54
siesta:     -0.37343   1.55982   6.34165  2       55
siesta:      6.62128   2.00402   0.04286  2       56

siesta: System type = slab      

initatomlists: Number of atoms, orbitals, and projectors:     56  1036   982

siesta: ******************** Simulation parameters ****************************
siesta:
siesta: The following are some of the parameters of the simulation.
siesta: A complete list of the parameters used, including default values,
siesta: can be found in file out.fdf
siesta:
redata: Spin configuration                          = collinear
redata: Number of spin components                   = 2
redata: Time-Reversal Symmetry                      = T
redata: Spin-spiral                                 = F
redata: Long output                                 =   F
redata: Number of Atomic Species                    =        2
redata: Charge density info will appear in .RHO file
redata: Write Mulliken Pop.                         = NO
redata: Matel table size (NRTAB)                    =     1024
redata: Mesh Cutoff                                 =   450.0000 Ry
redata: Net charge of the system                    =     0.0000 |e|
redata: Min. number of SCF Iter                     =        0
redata: Max. number of SCF Iter                     =      500
redata: SCF convergence failure will abort job
redata: SCF mix quantity                            = Hamiltonian
redata: Mix DM or H after convergence               =   F
redata: Recompute H after scf cycle                 =   F
redata: Mix DM in first SCF step                    =   T
redata: Write Pulay info on disk                    =   F
redata: New DM Mixing Weight                        =     0.0300
redata: New DM Occupancy tolerance                  = 0.000000000001
redata: No kicks to SCF
redata: DM Mixing Weight for Kicks                  =     0.5000
redata: Require Harris convergence for SCF          =   F
redata: Harris energy tolerance for SCF             =     0.000100 eV
redata: Require DM convergence for SCF              =   T
redata: DM tolerance for SCF                        =     0.000100
redata: Require EDM convergence for SCF             =   F
redata: EDM tolerance for SCF                       =     0.001000 eV
redata: Require H convergence for SCF               =   F
redata: Hamiltonian tolerance for SCF               =     0.001000 eV
redata: Require (free) Energy convergence for SCF   =   F
redata: (free) Energy tolerance for SCF             =     0.000100 eV
redata: Antiferro initial spin density              =   F
redata: Using Saved Data (generic)                  =   F
redata: Use continuation files for DM               =   T
redata: Neglect nonoverlap interactions             =   F
redata: Method of Calculation                       = Diagonalization
redata: Electronic Temperature                      =    49.9996 K
redata: Fix the spin of the system                  =   F
redata: Max. number of TDED Iter                    =        1
redata: Number of TDED substeps                     =        3
redata: Dynamics option                             = Single-point calculation
mix.SCF: Broyden mixing                          = Broyden
mix.SCF:    History steps                        = 6
mix.SCF:    Jacobian weight                      =     0.030000
mix.SCF:    Weight prime                         =     0.030000
mix.SCF: Spin-component mixing                   all
redata: ***********************************************************************

%block SCF.Mixers
  Broyden
%endblock SCF.Mixers

%block SCF.Mixer.Broyden
  # Mixing method
  method broyden

  # Mixing options
  weight 0.0300
  weight.linear 0.0300
  history 6
%endblock SCF.Mixer.Broyden

DM_history_depth set to one: no extrapolation allowed by default for geometry relaxation
Size of DM history Fstack: 1
Total number of electrons:   974.000000
Total ionic charge:   974.000000

* ProcessorY, Blocksize:    4  24


* Orbital distribution balance (max,min):    48    24

k-point displ. along   2 input, could be:     0.50    0.00
 Kpoints in:            8 . Kpoints trimmed:            8

siesta: k-grid: Number of k-points =         8
siesta: k-points from Monkhorst-Pack grid
siesta: k-cutoff (effective) =    15.826 Ang
siesta: k-point supercell and displacements
siesta: k-grid:    4   0   0      0.500
siesta: k-grid:    0   1   0      0.500
siesta: k-grid:    0   0   4      0.500

diag: Algorithm                                     = D&C
diag: Parallel over k                               =   F
diag: Use parallel 2D distribution                  =   T
diag: Parallel block-size                           = 24
diag: Parallel distribution                         =     4 x     8
diag: Used triangular part                          = Lower
diag: Absolute tolerance                            =  0.100E-15
diag: Orthogonalization factor                      =  0.100E-05
diag: Memory factor                                 =  1.0000

superc: Internal auxiliary supercell:     3 x     1 x     3  =       9
superc: Number of atoms, orbitals, and projectors:    504   9324   8838


ts: **************************************************************
ts: Save H and S matrices                           =    F
ts: Save DM and EDM matrices                        =    F
ts: Fix Hartree potential                           =    F
ts: Only save the overlap matrix S                  =    F
ts: **************************************************************

************************ Begin: TS CHECKS AND WARNINGS ************************
************************ End: TS CHECKS AND WARNINGS **************************


                     ====================================
                        Single-point calculation
                     ====================================

superc: Internal auxiliary supercell:     3 x     1 x     3  =       9
superc: Number of atoms, orbitals, and projectors:    504   9324   8838

outcell: Unit cell vectors (Ang):
       10.550400    0.000000    0.000000
        0.000000   31.651200    0.000000
        0.000000    0.000000   10.550400

outcell: Cell vector modules (Ang)   :   10.550400   31.651200   10.550400
outcell: Cell angles (23,13,12) (deg):     90.0000     90.0000     90.0000
outcell: Cell volume (Ang**3)        :   3523.1248
<dSpData1D:S at geom step 0
  <sparsity:sparsity for geom step 0
    nrows_g=1036 nrows=48 sparsity=.0230 nnzs=24637, refcount: 7>
  <dData1D:(new from dSpData1D) n=24637, refcount: 1>
refcount: 1>
new_DM -- step:     1
Initializing Density Matrix...

Attempting to read DM from file... Failed...
DM filled with atomic data:
<dSpData2D:DM initialized from atoms
  <sparsity:sparsity for geom step 0
    nrows_g=1036 nrows=48 sparsity=.0230 nnzs=24637, refcount: 8>
  <dData2D:DM n=24637 m=2, refcount: 1>
refcount: 1>
     spin moment: S , {S} =  110.00000       0.0       0.0 110.00000
No. of atoms with KB's overlaping orbs in proc 0. Max # of overlaps:      62     231
New grid distribution:   1
           1       1:   72    1:   54    1:    9
           2       1:   72    1:   54   10:   18
           3       1:   72    1:   54   19:   27
           4       1:   72    1:   54   28:   36
           5       1:   72    1:   54   37:   45
           6       1:   72    1:   54   46:   54
           7       1:   72    1:   54   55:   63
           8       1:   72    1:   54   64:   72
           9       1:   72   55:  108    1:    9
          10       1:   72   55:  108   10:   18
          11       1:   72   55:  108   19:   27
          12       1:   72   55:  108   28:   36
          13       1:   72   55:  108   37:   45
          14       1:   72   55:  108   46:   54
          15       1:   72   55:  108   55:   63
          16       1:   72   55:  108   64:   72
          17       1:   72  109:  162    1:    9
          18       1:   72  109:  162   10:   18
          19       1:   72  109:  162   19:   27
          20       1:   72  109:  162   28:   36
          21       1:   72  109:  162   37:   45
          22       1:   72  109:  162   46:   54
          23       1:   72  109:  162   55:   63
          24       1:   72  109:  162   64:   72
          25       1:   72  163:  216    1:    9
          26       1:   72  163:  216   10:   18
          27       1:   72  163:  216   19:   27
          28       1:   72  163:  216   28:   36
          29       1:   72  163:  216   37:   45
          30       1:   72  163:  216   46:   54
          31       1:   72  163:  216   55:   63
          32       1:   72  163:  216   64:   72

InitMesh: MESH =   144 x   432 x   144 =     8957952
InitMesh: (bp) =    72 x   216 x    72 =     1119744
InitMesh: Mesh cutoff (required, used) =   450.000   514.860 Ry
ExtMesh (bp) on 0 =   172 x   154 x   109 =     2887192
New grid distribution:   2
           1      36:   72    1:   11    1:   35
           2      37:   72   32:   36    1:   36
           3       1:   36   24:   27   37:   72
           4       1:   36   28:   31    1:   36
           5      36:   72    1:   11   36:   72
           6      36:   72   12:   16   36:   72
           7       1:   36   28:   31   37:   72
           8      37:   72   24:   27    1:   36
           9      37:   72   37:  216    1:   36
          10       1:   36   32:   36   37:   72
          11      37:   72   28:   31   37:   72
          12       1:   36   24:   27    1:   36
          13       1:   36   37:  216   37:   72
          14       1:   36   32:   36    1:   36
          15      37:   72   24:   27   37:   72
          16      37:   72   28:   31    1:   36
          17       1:   36   37:  216    1:   36
          18      37:   72   32:   36   37:   72
          19       1:   36   17:   20   37:   72
          20       1:   36   21:   23    1:   36
          21      37:   72   37:  216   37:   72
          22       1:   35   12:   16   36:   72
          23      37:   72   17:   20   37:   72
          24       1:   36   21:   23   37:   72
          25       1:   35    1:   11   36:   72
          26      36:   72   12:   16    1:   35
          27       1:   36   17:   20    1:   36
          28      37:   72   21:   23   37:   72
          29       1:   35    1:   11    1:   35
          30       1:   35   12:   16    1:   35
          31      37:   72   17:   20    1:   36
          32      37:   72   21:   23    1:   36
New grid distribution:   3
           1      37:   72   46:   54    1:   36
           2       1:   36   37:   45    1:   36
           3       1:   36    1:    9   37:   72
           4       1:   36   19:   27   37:   72
           5       1:   36   46:   54   37:   72
           6      37:   72   37:   45    1:   36
           7       1:   36   10:   18   37:   72
           8       1:   36   28:   36   37:   72
           9      37:   72   55:  207    1:   36
          10      37:   72  208:  216   37:   72
          11      37:   72   10:   18   37:   72
          12      37:   72   28:   36   37:   72
          13       1:   36   55:  207   37:   72
          14      37:   72   46:   54   37:   72
          15      37:   72    1:    9   37:   72
          16      37:   72   19:   27   37:   72
          17       1:   36   55:  207    1:   36
          18      37:   72   37:   45   37:   72
          19       1:   36   10:   18    1:   36
          20       1:   36   28:   36    1:   36
          21      37:   72   55:  207   37:   72
          22       1:   36  208:  216    1:   36
          23       1:   36    1:    9    1:   36
          24       1:   36   19:   27    1:   36
          25       1:   36   37:   45   37:   72
          26      37:   72  208:  216    1:   36
          27      37:   72   10:   18    1:   36
          28      37:   72   28:   36    1:   36
          29       1:   36   46:   54    1:   36
          30       1:   36  208:  216   37:   72
          31      37:   72    1:    9    1:   36
          32      37:   72   19:   27    1:   36
Setting up quadratic distribution...
ExtMesh (bp) on 0 =   137 x   111 x   135 =     2052945
PhiOnMesh: Number of (b)points on node 0 =                14245
PhiOnMesh: nlist on node 0 =               876939

stepf: Fermi-Dirac step function

siesta: Program's energy decomposition (eV):
siesta: Ebs     =    -45646.571984
siesta: Eions   =    312598.544580
siesta: Ena     =     19323.340052
siesta: Ekin    =    112710.218295
siesta: Enl     =    -37527.356412
siesta: Eso     =         0.000000
siesta: Eldau   =         0.000000
siesta: DEna    =      2561.818950
siesta: DUscf   =       126.828754
siesta: DUext   =         0.000000
siesta: Enegf   =         0.000000
siesta: Exc     =    -30988.226960
siesta: eta*DQ  =         0.000000
siesta: Emadel  =         0.000000
siesta: Emeta   =         0.000000
siesta: Emolmec =         0.000000
siesta: Ekinion =         0.000000
siesta: Eharris =   -246148.674746
siesta: Etot    =   -246391.921900
siesta: FreeEng =   -246391.929321

        iscf     Eharris(eV)        E_KS(eV)     FreeEng(eV)     dDmax    Ef(eV) dHmax(eV)
   scf:    1  -246148.674746  -246391.921900  -246391.929321  1.789179 -2.492860 19.059732
     spin moment: S , {S} =   60.35440       0.0       0.0  60.35440
timer: Routine,Calls,Time,% = IterSCF        1      33.536  73.33
   scf:    2  -246445.765359  -246424.148161  -246424.154261  0.092251 -2.792140 11.569933
     spin moment: S , {S} =   59.49106       0.0       0.0  59.49106
   scf:    3  -246431.131788  -246439.975858  -246439.980993  0.160838 -3.298231 12.634671
     spin moment: S , {S} =   56.55035       0.0       0.0  56.55035
   scf:    4  -246455.085212  -246456.828725  -246456.833825  0.064327 -3.444010  7.311278
     spin moment: S , {S} =   56.25002       0.0       0.0  56.25002
   scf:    5  -246486.983814  -246476.980184  -246476.985564  0.142052 -3.986566  3.035815
     spin moment: S , {S} =   50.88324       0.0       0.0  50.88324
   scf:    6  -246478.638824  -246478.020824  -246478.025827  0.012705 -4.012185  2.575982
     spin moment: S , {S} =   50.72766       0.0       0.0  50.72766
   scf:    7  -246479.786473  -246478.952510  -246478.957993  0.007724 -4.014656  2.287396
     spin moment: S , {S} =   50.24626       0.0       0.0  50.24626
   scf:    8  -246484.192677  -246481.837237  -246481.843826  0.065731 -4.029147  1.719825
     spin moment: S , {S} =   47.62730       0.0       0.0  47.62730
   scf:    9  -246483.806508  -246483.029494  -246483.033623  0.048443 -3.986743  1.724497
     spin moment: S , {S} =   46.25005       0.0       0.0  46.25005
   scf:   10  -246483.140118  -246483.126553  -246483.130703  0.007881 -3.995826  1.441532
     spin moment: S , {S} =   46.24965       0.0       0.0  46.24965
   scf:   11  -246483.206098  -246483.175950  -246483.180569  0.005237 -4.005441  1.552758
     spin moment: S , {S} =   46.18441       0.0       0.0  46.18441
   scf:   12  -246483.361954  -246483.270382  -246483.275739  0.009602 -4.010609  1.434115
     spin moment: S , {S} =   45.81083       0.0       0.0  45.81083
   scf:   13  -246483.806670  -246483.544706  -246483.549896  0.033253 -4.030490  1.447751
     spin moment: S , {S} =   44.55227       0.0       0.0  44.55227
   scf:   14  -246483.581626  -246483.565110  -246483.570037  0.002779 -4.030567  1.355963
     spin moment: S , {S} =   44.50322       0.0       0.0  44.50322
   scf:   15  -246483.675154  -246483.622787  -246483.628166  0.005979 -4.035591  1.225876
     spin moment: S , {S} =   44.43162       0.0       0.0  44.43162
   scf:   16  -246484.380288  -246484.001023  -246484.006822  0.053713 -4.075110  0.674911
     spin moment: S , {S} =   42.33089       0.0       0.0  42.33089
   scf:   17  -246484.472136  -246484.240945  -246484.246407  0.025923 -4.122580  0.505540
     spin moment: S , {S} =   41.00002       0.0       0.0  41.00002
   scf:   18  -246484.354511  -246484.302110  -246484.308268  0.018526 -4.172572  0.351564
     spin moment: S , {S} =   40.96477       0.0       0.0  40.96477
   scf:   19  -246484.307608  -246484.306673  -246484.312694  0.002528 -4.175467  0.268433
     spin moment: S , {S} =   40.99295       0.0       0.0  40.99295
   scf:   20  -246484.312866  -246484.311018  -246484.317080  0.002215 -4.182486  0.296038
     spin moment: S , {S} =   40.99511       0.0       0.0  40.99511
   scf:   21  -246484.333461  -246484.324160  -246484.330555  0.010850 -4.205853  0.300255
     spin moment: S , {S} =   40.54023       0.0       0.0  40.54023
   scf:   22  -246484.309953  -246484.319379  -246484.325814  0.008855 -4.196463  0.262201
     spin moment: S , {S} =   40.92390       0.0       0.0  40.92390
   scf:   23  -246484.327670  -246484.323744  -246484.330312  0.002730 -4.201959  0.248776
     spin moment: S , {S} =   40.81930       0.0       0.0  40.81930
   scf:   24  -246484.322625  -246484.323264  -246484.329767  0.001738 -4.199935  0.239487
     spin moment: S , {S} =   40.88820       0.0       0.0  40.88820
   scf:   25  -246484.322860  -246484.323127  -246484.329556  0.000953 -4.198771  0.239219
     spin moment: S , {S} =   40.92551       0.0       0.0  40.92551
   scf:   26  -246484.325032  -246484.324174  -246484.330513  0.001100 -4.198319  0.211376
     spin moment: S , {S} =   40.95189       0.0       0.0  40.95189
   scf:   27  -246484.324635  -246484.324441  -246484.330701  0.000579 -4.196849  0.211283
     spin moment: S , {S} =   40.96938       0.0       0.0  40.96938
   scf:   28  -246484.324413  -246484.324434  -246484.330647  0.000311 -4.195766  0.208473
     spin moment: S , {S} =   40.97741       0.0       0.0  40.97741
   scf:   29  -246484.325176  -246484.324806  -246484.331031  0.000207 -4.196316  0.205153
     spin moment: S , {S} =   40.97520       0.0       0.0  40.97520
   scf:   30  -246484.329486  -246484.327252  -246484.333517  0.000777 -4.196768  0.176249
     spin moment: S , {S} =   40.96331       0.0       0.0  40.96331
   scf:   31  -246484.326881  -246484.327224  -246484.333560  0.000566 -4.197607  0.204819
     spin moment: S , {S} =   40.94549       0.0       0.0  40.94549
   scf:   32  -246484.340366  -246484.333818  -246484.340304  0.003540 -4.201516  0.177251
     spin moment: S , {S} =   40.80701       0.0       0.0  40.80701
   scf:   33  -246484.366255  -246484.349074  -246484.355814  0.010384 -4.211895  0.121850
     spin moment: S , {S} =   40.33440       0.0       0.0  40.33440
   scf:   34  -246484.348498  -246484.348796  -246484.355633  0.000644 -4.212394  0.121164
     spin moment: S , {S} =   40.30479       0.0       0.0  40.30479
   scf:   35  -246484.349244  -246484.349143  -246484.355652  0.001912 -4.209922  0.105207
     spin moment: S , {S} =   40.39584       0.0       0.0  40.39584
   scf:   36  -246484.349532  -246484.349543  -246484.355781  0.001411 -4.207359  0.095631
     spin moment: S , {S} =   40.46206       0.0       0.0  40.46206
   scf:   37  -246484.352842  -246484.351206  -246484.357789  0.001871 -4.208360  0.071583
     spin moment: S , {S} =   40.37137       0.0       0.0  40.37137
   scf:   38  -246484.351571  -246484.351420  -246484.357950  0.000419 -4.207659  0.070145
     spin moment: S , {S} =   40.38470       0.0       0.0  40.38470
   scf:   39  -246484.352591  -246484.352010  -246484.358629  0.000591 -4.207418  0.060178
     spin moment: S , {S} =   40.36033       0.0       0.0  40.36033
   scf:   40  -246484.354304  -246484.353108  -246484.360047  0.002146 -4.207346  0.041846
     spin moment: S , {S} =   40.26458       0.0       0.0  40.26458
   scf:   41  -246484.354893  -246484.353950  -246484.361128  0.001982 -4.206601  0.030030
     spin moment: S , {S} =   40.17864       0.0       0.0  40.17864
   scf:   42  -246484.355199  -246484.354556  -246484.361891  0.001445 -4.205910  0.030244
     spin moment: S , {S} =   40.11671       0.0       0.0  40.11671
   scf:   43  -246484.354494  -246484.354551  -246484.361831  0.000501 -4.206165  0.029113
     spin moment: S , {S} =   40.14053       0.0       0.0  40.14053
   scf:   44  -246484.355214  -246484.354874  -246484.362314  0.001579 -4.205732  0.019621
     spin moment: S , {S} =   40.06903       0.0       0.0  40.06903
   scf:   45  -246484.355923  -246484.355341  -246484.362996  0.002299 -4.204777  0.024893
     spin moment: S , {S} =   39.97161       0.0       0.0  39.97161
   scf:   46  -246484.355536  -246484.355445  -246484.363094  0.000266 -4.204714  0.028538
     spin moment: S , {S} =   39.97800       0.0       0.0  39.97800
   scf:   47  -246484.355416  -246484.355440  -246484.363076  0.000260 -4.204737  0.021218
     spin moment: S , {S} =   39.98038       0.0       0.0  39.98038
   scf:   48  -246484.355515  -246484.355479  -246484.363153  0.000436 -4.204514  0.026108
     spin moment: S , {S} =   39.96126       0.0       0.0  39.96126
   scf:   49  -246484.355606  -246484.355544  -246484.363201  0.000128 -4.204406  0.023461
     spin moment: S , {S} =   39.96648       0.0       0.0  39.96648
   scf:   50  -246484.355661  -246484.355602  -246484.363218  0.000381 -4.204390  0.019083
     spin moment: S , {S} =   39.98456       0.0       0.0  39.98456
   scf:   51  -246484.355704  -246484.355654  -246484.363243  0.000208 -4.204302  0.016207
     spin moment: S , {S} =   39.99657       0.0       0.0  39.99657
   scf:   52  -246484.355686  -246484.355666  -246484.363191  0.000642 -4.204361  0.014422
     spin moment: S , {S} =   40.02740       0.0       0.0  40.02740
   scf:   53  -246484.355730  -246484.355697  -246484.363170  0.000453 -4.204266  0.013401
     spin moment: S , {S} =   40.05072       0.0       0.0  40.05072
   scf:   54  -246484.355798  -246484.355749  -246484.363194  0.000238 -4.204067  0.010473
     spin moment: S , {S} =   40.06404       0.0       0.0  40.06404
   scf:   55  -246484.355815  -246484.355784  -246484.363199  0.000300 -4.203919  0.008195
     spin moment: S , {S} =   40.07949       0.0       0.0  40.07949
   scf:   56  -246484.355896  -246484.355844  -246484.363242  0.000206 -4.203646  0.009810
     spin moment: S , {S} =   40.08733       0.0       0.0  40.08733
   scf:   57  -246484.355871  -246484.355859  -246484.363212  0.000405 -4.203526  0.006936
     spin moment: S , {S} =   40.10722       0.0       0.0  40.10722
   scf:   58  -246484.355896  -246484.355878  -246484.363206  0.000220 -4.203383  0.006183
     spin moment: S , {S} =   40.11881       0.0       0.0  40.11881
   scf:   59  -246484.355895  -246484.355887  -246484.363213  0.000044 -4.203345  0.005955
     spin moment: S , {S} =   40.12015       0.0       0.0  40.12015

SCF Convergence by DM criterion
max |DM_out - DM_in|         :     0.0000437456
max |H_out - H_in|      (eV) :     0.0059551533
SCF cycle converged after 59 iterations

Using DM_out to compute the final energy and forces
No. of atoms with KB's overlaping orbs in proc 0. Max # of overlaps:      62     231

siesta: E_KS(eV) =          -246484.3559

siesta: E_KS - E_eggbox =   -246484.3559
     spin moment: S , {S} =   40.12015       0.0       0.0  40.12015

siesta: Atomic forces (eV/Ang):
----------------------------------------
   Tot    0.642126   -0.087541   -0.712197
----------------------------------------
   Max    0.466432
   Res    0.091995    sqrt( Sum f_i^2 / 3N )
----------------------------------------
   Max    0.466432    constrained

Stress-tensor-Voigt (kbar):       16.09       -0.31       15.81        0.24        0.15       -0.20
(Free)E + p*V (eV/cell)  -246507.5161
Target enthalpy (eV/cell)  -246484.3632

siesta: Program's energy decomposition (eV):
siesta: Ebs     =    -36850.719630
siesta: Eions   =    312598.544580
siesta: Ena     =     19323.340052
siesta: Ekin    =    116736.778379
siesta: Enl     =    -39218.107741
siesta: Eso     =         0.000000
siesta: Eldau   =         0.000000
siesta: DEna    =       795.780273
siesta: DUscf   =        11.196417
siesta: DUext   =         0.000000
siesta: Enegf   =         0.000000
siesta: Exc     =    -31534.798686
siesta: eta*DQ  =         0.000000
siesta: Emadel  =         0.000000
siesta: Emeta   =         0.000000
siesta: Emolmec =         0.000000
siesta: Ekinion =         0.000000
siesta: Eharris =   -246484.355895
siesta: Etot    =   -246484.355887
siesta: FreeEng =   -246484.363213

siesta: Final energy (eV):
siesta:  Band Struct. =  -36850.719630
siesta:       Kinetic =  116736.778379
siesta:       Hartree = 1502869.507883
siesta:       Eldau   =       0.000000
siesta:       Eso     =       0.000000
siesta:    Ext. field =       0.000000
siesta:       Enegf   =       0.000000
siesta:   Exch.-corr. =  -31534.798686
siesta:  Ion-electron =-3126652.053929
siesta:       Ion-ion = 1292096.210467
siesta:       Ekinion =       0.000000
siesta:         Total = -246484.355887
siesta:         Fermi =      -4.203345

siesta: Atomic forces (eV/Ang):
siesta:      1   -0.156734   -0.318988    0.319918
siesta:      2   -0.009302   -0.094984    0.058042
siesta:      3   -0.009278    0.023472    0.064811
siesta:      4   -0.065934    0.022300    0.026181
siesta:      5   -0.033553    0.030375   -0.035347
siesta:      6   -0.015979    0.061498   -0.076038
siesta:      7    0.226619   -0.286080   -0.068741
siesta:      8    0.466432   -0.345322   -0.070182
siesta:      9   -0.060327    0.177234    0.042542
siesta:     10    0.030165    0.053855    0.049471
siesta:     11    0.033061    0.023826   -0.001687
siesta:     12    0.003922    0.052218    0.018953
siesta:     13    0.003181    0.000123    0.033839
siesta:     14    0.018334   -0.026031    0.019568
siesta:     15   -0.053298    0.043355   -0.081955
siesta:     16    0.012524    0.040939   -0.011747
siesta:     17    0.037361   -0.097946    0.009614
siesta:     18   -0.021600   -0.193728    0.106366
siesta:     19    0.050831    0.035171   -0.007730
siesta:     20    0.005297    0.013360   -0.009786
siesta:     21    0.014878    0.012815   -0.027704
siesta:     22   -0.038163   -0.037788    0.054870
siesta:     23    0.053470   -0.136986   -0.220743
siesta:     24   -0.140517   -0.075556   -0.021552
siesta:     25   -0.028470    0.008469    0.003805
siesta:     26    0.012746    0.038281   -0.027637
siesta:     27   -0.004006    0.012131   -0.036118
siesta:     28   -0.017940   -0.042085   -0.037448
siesta:     29    0.002171   -0.029498   -0.024560
siesta:     30   -0.001026    0.039101   -0.023613
siesta:     31    0.073907    0.036566   -0.002121
siesta:     32    0.003577   -0.003596   -0.034643
siesta:     33    0.035613    0.068091   -0.000487
siesta:     34    0.012611    0.019356   -0.016421
siesta:     35    0.095860    0.045581   -0.043596
siesta:     36    0.002169    0.010573   -0.009764
siesta:     37    0.023600   -0.013238   -0.014831
siesta:     38   -0.091815   -0.075098    0.071809
siesta:     39    0.006976    0.003106   -0.043783
siesta:     40    0.004841   -0.012776   -0.047631
siesta:     41    0.066324    0.062265    0.020215
siesta:     42    0.075350    0.067015   -0.047884
siesta:     43   -0.012544   -0.068548   -0.010542
siesta:     44    0.029354   -0.000233   -0.032402
siesta:     45    0.031804   -0.025149   -0.044912
siesta:     46    0.023759   -0.081563   -0.106759
siesta:     47    0.028752   -0.002502   -0.008339
siesta:     48    0.018290   -0.013413   -0.005766
siesta:     49   -0.002664    0.034488   -0.055103
siesta:     50    0.024027   -0.016710   -0.081513
siesta:     51   -0.005433    0.011419   -0.024526
siesta:     52    0.035786    0.053329   -0.062123
siesta:     53   -0.043159    0.294780   -0.040423
siesta:     54   -0.080336    0.066948   -0.046953
siesta:     55   -0.024906    0.450198   -0.046170
siesta:     56   -0.004480   -0.001959   -0.002921
siesta: ----------------------------------------
siesta:    Tot    0.642126   -0.087541   -0.712197

siesta: Stress tensor (static) (eV/Ang**3):
siesta:     0.010041    0.000148   -0.000124
siesta:     0.000148   -0.000191    0.000091
siesta:    -0.000124    0.000091    0.009865

siesta: Cell volume =       3523.124829 Ang**3

siesta: Pressure (static):
siesta:                Solid            Molecule  Units
siesta:          -0.00007157         -0.00006850  Ry/Bohr**3
siesta:          -0.00657170         -0.00628903  eV/Ang**3
siesta:         -10.52913096        -10.07624761  kBar
(Free)E+ p_basis*V_orbitals  =     -246446.281832
(Free)Eharris+ p_basis*V_orbitals  =     -246446.281841
     spin moment: S , {S} =   40.12015       0.0       0.0  40.12015

siesta: Electric dipole (a.u.)  =   -0.000000    0.106864    0.000000
siesta: Electric dipole (Debye) =   -0.000000    0.271621    0.000000

>> End of run:   6-OCT-2020  13:34:42
Job completed
